
     Program PWSCF v.7.3.1 starts on 10Sep2024 at 15:46:32 

     This program is part of the open-source Quantum ESPRESSO suite
     for quantum simulation of materials; please cite
         "P. Giannozzi et al., J. Phys.:Condens. Matter 21 395502 (2009);
         "P. Giannozzi et al., J. Phys.:Condens. Matter 29 465901 (2017);
         "P. Giannozzi et al., J. Chem. Phys. 152 154105 (2020);
          URL http://www.quantum-espresso.org", 
     in publications or presentations arising from this work. More details at
     http://www.quantum-espresso.org/quote

     Parallel version (MPI), running on     1 processors

     MPI processes distributed on     1 nodes
     1664 MiB available memory on the printing compute node when the environment starts

     Waiting for input...
     Reading input from standard input

     Current dimensions of program PWSCF are:
     Max number of different atomic species (ntypx) = 10
     Max number of k-points (npk) =  40000
     Max angular momentum in pseudopotentials (lmaxx) =  4
     Message from routine volume:
     axis vectors are left-handed

     Subspace diagonalization in iterative solution of the eigenvalue problem:
     a serial algorithm will be used


     G-vector sticks info
     --------------------
     sticks:   dense  smooth     PW     G-vecs:    dense   smooth      PW
     Sum        1061     539    171                17255     6111    1141

     Using Slab Decomposition



     bravais-lattice index     =            0
     lattice parameter (alat)  =       8.1900  a.u.
     unit-cell volume          =     274.6766 (a.u.)^3
     number of atoms/cell      =            4
     number of atomic types    =            3
     number of electrons       =        44.00
     number of Kohn-Sham states=           22
     kinetic-energy cutoff     =      30.0000  Ry
     charge density cutoff     =     240.0000  Ry
     scf convergence threshold =      4.0E-10
     mixing beta               =       0.4000
     number of iterations used =            8  plain     mixing
     Exchange-correlation= SLA  PW   NOGX NOGC
                           (   1   4   0   0   0   0   0)

     celldm(1)=   8.190000  celldm(2)=   0.000000  celldm(3)=   0.000000
     celldm(4)=   0.000000  celldm(5)=   0.000000  celldm(6)=   0.000000

     crystal axes: (cart. coord. in units of alat)
               a(1) = (   0.500000   0.500000   1.000000 )  
               a(2) = (   0.500000   1.000000   0.500000 )  
               a(3) = (   1.000000   0.500000   0.500000 )  

     reciprocal axes: (cart. coord. in units 2 pi/alat)
               b(1) = ( -0.500000 -0.500000  1.500000 )  
               b(2) = ( -0.500000  1.500000 -0.500000 )  
               b(3) = (  1.500000 -0.500000 -0.500000 )  


     PseudoPot. # 1 for Fe read from file:
     ./pseudo/Fe.upf
     MD5 check sum: b1fb9d3cb1d156aba92c681262384fac
     Pseudo is Norm-conserving + core correction, Zval = 16.0
     Generated using ONCVPSP code by D. R. Hamann
     Using radial grid of 1408 points,  6 beta functions with: 
                l(1) =   0
                l(2) =   0
                l(3) =   1
                l(4) =   1
                l(5) =   2
                l(6) =   2

     PseudoPot. # 2 for Fe read from file:
     ./pseudo/Fe.upf
     MD5 check sum: b1fb9d3cb1d156aba92c681262384fac
     Pseudo is Norm-conserving + core correction, Zval = 16.0
     Generated using ONCVPSP code by D. R. Hamann
     Using radial grid of 1408 points,  6 beta functions with: 
                l(1) =   0
                l(2) =   0
                l(3) =   1
                l(4) =   1
                l(5) =   2
                l(6) =   2

     PseudoPot. # 3 for O  read from file:
     ./pseudo/O.upf
     MD5 check sum: 86ed389b6a5065e60c3f64c68a612de9
     Pseudo is Norm-conserving + core correction, Zval =  6.0
     Generated using ONCVPSP code by D. R. Hamann
     Using radial grid of  926 points,  5 beta functions with: 
                l(1) =   0
                l(2) =   0
                l(3) =   1
                l(4) =   1
                l(5) =   2

     atomic species   valence    mass     pseudopotential
     Fe1              16.00     1.00000     Fe( 1.00)
     Fe2              16.00     1.00000     Fe( 1.00)
     O                 6.00     1.00000     O ( 1.00)

     No symmetry found


                                    s                        frac. trans.

      isym =  1     identity                                     

 cryst.   s( 1) = (     1          0          0      )
                  (     0          1          0      )
                  (     0          0          1      )

 cart.    s( 1) = (  1.0000000  0.0000000  0.0000000 )
                  (  0.0000000  1.0000000  0.0000000 )
                  (  0.0000000  0.0000000  1.0000000 )


   Cartesian axes

     site n.     atom                  positions (alat units)
         1        Fe1    tau(   1) = (   0.0000000   0.0000000   0.0000000  )
         2        Fe2    tau(   2) = (   1.0000000   1.0000000   1.0000000  )
         3        O      tau(   3) = (   0.5000000   0.5000000   0.5000000  )
         4        O      tau(   4) = (   1.5000000   1.5000000   1.5000000  )

   Crystallographic axes

     site n.     atom                  positions (cryst. coord.)
         1        Fe1    tau(   1) = (  0.0000000  0.0000000  0.0000000  )
         2        Fe2    tau(   2) = (  0.5000000  0.5000000  0.5000000  )
         3        O      tau(   3) = (  0.2500000  0.2500000  0.2500000  )
         4        O      tau(   4) = (  0.7500000  0.7500000  0.7500000  )

     number of k points=    27
                       cart. coord. in units 2pi/alat
        k(    1) = (   0.0000000   0.0000000   0.0000000), wk =   0.0740741
        k(    2) = (   0.5000000  -0.1666667  -0.1666667), wk =   0.0740741
        k(    3) = (  -0.5000000   0.1666667   0.1666667), wk =   0.0740741
        k(    4) = (  -0.1666667   0.5000000  -0.1666667), wk =   0.0740741
        k(    5) = (   0.3333333   0.3333333  -0.3333333), wk =   0.0740741
        k(    6) = (  -0.6666667   0.6666667   0.0000000), wk =   0.0740741
        k(    7) = (   0.1666667  -0.5000000   0.1666667), wk =   0.0740741
        k(    8) = (   0.6666667  -0.6666667   0.0000000), wk =   0.0740741
        k(    9) = (  -0.3333333  -0.3333333   0.3333333), wk =   0.0740741
        k(   10) = (  -0.1666667  -0.1666667   0.5000000), wk =   0.0740741
        k(   11) = (   0.3333333  -0.3333333   0.3333333), wk =   0.0740741
        k(   12) = (  -0.6666667   0.0000000   0.6666667), wk =   0.0740741
        k(   13) = (  -0.3333333   0.3333333   0.3333333), wk =   0.0740741
        k(   14) = (   0.1666667   0.1666667   0.1666667), wk =   0.0740741
        k(   15) = (  -0.8333333   0.5000000   0.5000000), wk =   0.0740741
        k(   16) = (   0.0000000  -0.6666667   0.6666667), wk =   0.0740741
        k(   17) = (   0.5000000  -0.8333333   0.5000000), wk =   0.0740741
        k(   18) = (  -0.5000000  -0.5000000   0.8333333), wk =   0.0740741
        k(   19) = (   0.1666667   0.1666667  -0.5000000), wk =   0.0740741
        k(   20) = (   0.6666667   0.0000000  -0.6666667), wk =   0.0740741
        k(   21) = (  -0.3333333   0.3333333  -0.3333333), wk =   0.0740741
        k(   22) = (   0.0000000   0.6666667  -0.6666667), wk =   0.0740741
        k(   23) = (   0.5000000   0.5000000  -0.8333333), wk =   0.0740741
        k(   24) = (  -0.5000000   0.8333333  -0.5000000), wk =   0.0740741
        k(   25) = (   0.3333333  -0.3333333  -0.3333333), wk =   0.0740741
        k(   26) = (   0.8333333  -0.5000000  -0.5000000), wk =   0.0740741
        k(   27) = (  -0.1666667  -0.1666667  -0.1666667), wk =   0.0740741

                       cryst. coord.
        k(    1) = (   0.0000000   0.0000000   0.0000000), wk =   0.0740741
        k(    2) = (   0.0000000   0.0000000   0.3333333), wk =   0.0740741
        k(    3) = (   0.0000000   0.0000000  -0.3333333), wk =   0.0740741
        k(    4) = (   0.0000000   0.3333333   0.0000000), wk =   0.0740741
        k(    5) = (   0.0000000   0.3333333   0.3333333), wk =   0.0740741
        k(    6) = (   0.0000000   0.3333333  -0.3333333), wk =   0.0740741
        k(    7) = (   0.0000000  -0.3333333   0.0000000), wk =   0.0740741
        k(    8) = (   0.0000000  -0.3333333   0.3333333), wk =   0.0740741
        k(    9) = (   0.0000000  -0.3333333  -0.3333333), wk =   0.0740741
        k(   10) = (   0.3333333   0.0000000   0.0000000), wk =   0.0740741
        k(   11) = (   0.3333333   0.0000000   0.3333333), wk =   0.0740741
        k(   12) = (   0.3333333   0.0000000  -0.3333333), wk =   0.0740741
        k(   13) = (   0.3333333   0.3333333   0.0000000), wk =   0.0740741
        k(   14) = (   0.3333333   0.3333333   0.3333333), wk =   0.0740741
        k(   15) = (   0.3333333   0.3333333  -0.3333333), wk =   0.0740741
        k(   16) = (   0.3333333  -0.3333333   0.0000000), wk =   0.0740741
        k(   17) = (   0.3333333  -0.3333333   0.3333333), wk =   0.0740741
        k(   18) = (   0.3333333  -0.3333333  -0.3333333), wk =   0.0740741
        k(   19) = (  -0.3333333   0.0000000   0.0000000), wk =   0.0740741
        k(   20) = (  -0.3333333   0.0000000   0.3333333), wk =   0.0740741
        k(   21) = (  -0.3333333   0.0000000  -0.3333333), wk =   0.0740741
        k(   22) = (  -0.3333333   0.3333333   0.0000000), wk =   0.0740741
        k(   23) = (  -0.3333333   0.3333333   0.3333333), wk =   0.0740741
        k(   24) = (  -0.3333333   0.3333333  -0.3333333), wk =   0.0740741
        k(   25) = (  -0.3333333  -0.3333333   0.0000000), wk =   0.0740741
        k(   26) = (  -0.3333333  -0.3333333   0.3333333), wk =   0.0740741
        k(   27) = (  -0.3333333  -0.3333333  -0.3333333), wk =   0.0740741

     Dense  grid:    17255 G-vectors     FFT dimensions: (  50,  50,  50)

     Smooth grid:     6111 G-vectors     FFT dimensions: (  36,  36,  36)

     Dynamical RAM for                 wfc:       0.26 MB

     Dynamical RAM for     wfc (w. buffer):       7.16 MB

     Dynamical RAM for           str. fact:       0.79 MB

     Dynamical RAM for           local pot:       0.00 MB

     Dynamical RAM for          nlocal pot:       0.72 MB

     Dynamical RAM for                qrad:       3.73 MB

     Dynamical RAM for          rho,v,vnew:       3.65 MB

     Dynamical RAM for               rhoin:       1.22 MB

     Dynamical RAM for            rho*nmix:       4.21 MB

     Dynamical RAM for           G-vectors:       1.03 MB

     Dynamical RAM for          h,s,v(r/c):       0.09 MB

     Dynamical RAM for          <psi|beta>:       0.02 MB

     Dynamical RAM for                 psi:       0.51 MB

     Dynamical RAM for                hpsi:       0.51 MB

     Dynamical RAM for      wfcinit/wfcrot:       0.67 MB

     Estimated static dynamical RAM per process >      24.13 MB

     Estimated max dynamical RAM per process >      29.47 MB

     Check: negative core charge=   -0.000037

     Initial potential from superposition of free atoms

     starting charge      43.9994, renormalised to      44.0000
     Starting wfcs are   28 randomized atomic wfcs

     total cpu time spent up to now is        1.1 secs

     Self-consistent Calculation

     iteration #  1     ecut=    30.00 Ry     beta= 0.40
     Davidson diagonalization with overlap

---- Real-time Memory Report at c_bands before calling an iterative solver
            48 MiB given to the printing process from OS
             0 MiB allocation reported by mallinfo(arena+hblkhd)
          1640 MiB available memory on the node where the printing process lives
------------------
     ethr =  1.00E-02,  avg # of iterations =  4.0

     total cpu time spent up to now is        2.2 secs

     total energy              =    -548.39461960 Ry
     estimated scf accuracy    <      11.70535341 Ry

     iteration #  2     ecut=    30.00 Ry     beta= 0.40
     Davidson diagonalization with overlap

---- Real-time Memory Report at c_bands before calling an iterative solver
            54 MiB given to the printing process from OS
             0 MiB allocation reported by mallinfo(arena+hblkhd)
          1632 MiB available memory on the node where the printing process lives
------------------
     ethr =  1.00E-02,  avg # of iterations =  6.1

     total cpu time spent up to now is        3.7 secs

     total energy              =    -551.00230739 Ry
     estimated scf accuracy    <       5.03038269 Ry

     iteration #  3     ecut=    30.00 Ry     beta= 0.40
     Davidson diagonalization with overlap

---- Real-time Memory Report at c_bands before calling an iterative solver
            54 MiB given to the printing process from OS
             0 MiB allocation reported by mallinfo(arena+hblkhd)
          1632 MiB available memory on the node where the printing process lives
------------------
     ethr =  1.00E-02,  avg # of iterations =  4.8

     total cpu time spent up to now is        4.8 secs

     total energy              =    -551.67410507 Ry
     estimated scf accuracy    <       0.26655000 Ry

     iteration #  4     ecut=    30.00 Ry     beta= 0.40
     Davidson diagonalization with overlap

---- Real-time Memory Report at c_bands before calling an iterative solver
            54 MiB given to the printing process from OS
             0 MiB allocation reported by mallinfo(arena+hblkhd)
          1631 MiB available memory on the node where the printing process lives
------------------
     c_bands:  1 eigenvalues not converged
     ethr =  6.06E-04,  avg # of iterations =  4.0

     total cpu time spent up to now is        5.8 secs

     total energy              =    -551.68325477 Ry
     estimated scf accuracy    <       0.07324265 Ry

     iteration #  5     ecut=    30.00 Ry     beta= 0.40
     Davidson diagonalization with overlap

---- Real-time Memory Report at c_bands before calling an iterative solver
            54 MiB given to the printing process from OS
             0 MiB allocation reported by mallinfo(arena+hblkhd)
          1633 MiB available memory on the node where the printing process lives
------------------
     c_bands:  1 eigenvalues not converged
     c_bands:  1 eigenvalues not converged
     c_bands:  2 eigenvalues not converged
     c_bands:  1 eigenvalues not converged
     c_bands:  1 eigenvalues not converged
     c_bands:  1 eigenvalues not converged
     ethr =  1.66E-04,  avg # of iterations = 14.3

     total cpu time spent up to now is        7.6 secs

     total energy              =    -551.72072330 Ry
     estimated scf accuracy    <       1.83219516 Ry

     iteration #  6     ecut=    30.00 Ry     beta= 0.40
     Davidson diagonalization with overlap

---- Real-time Memory Report at c_bands before calling an iterative solver
            55 MiB given to the printing process from OS
             0 MiB allocation reported by mallinfo(arena+hblkhd)
          1628 MiB available memory on the node where the printing process lives
------------------
     c_bands:  2 eigenvalues not converged
     c_bands:  2 eigenvalues not converged
     c_bands:  2 eigenvalues not converged
     c_bands:  2 eigenvalues not converged
     c_bands:  2 eigenvalues not converged
     ethr =  1.66E-04,  avg # of iterations = 12.3

     total cpu time spent up to now is        9.4 secs

     total energy              =    -551.86326512 Ry
     estimated scf accuracy    <       0.74068869 Ry

     iteration #  7     ecut=    30.00 Ry     beta= 0.40
     Davidson diagonalization with overlap

---- Real-time Memory Report at c_bands before calling an iterative solver
            55 MiB given to the printing process from OS
             0 MiB allocation reported by mallinfo(arena+hblkhd)
          1627 MiB available memory on the node where the printing process lives
------------------
     ethr =  1.66E-04,  avg # of iterations =  2.4

     total cpu time spent up to now is       10.2 secs

     total energy              =    -551.81277940 Ry
     estimated scf accuracy    <       0.71045303 Ry

     iteration #  8     ecut=    30.00 Ry     beta= 0.40
     Davidson diagonalization with overlap

---- Real-time Memory Report at c_bands before calling an iterative solver
            55 MiB given to the printing process from OS
             0 MiB allocation reported by mallinfo(arena+hblkhd)
          1627 MiB available memory on the node where the printing process lives
------------------
     c_bands:  2 eigenvalues not converged
     ethr =  1.66E-04,  avg # of iterations =  6.9

     total cpu time spent up to now is       11.4 secs

     total energy              =    -551.84733934 Ry
     estimated scf accuracy    <       0.03367613 Ry

     iteration #  9     ecut=    30.00 Ry     beta= 0.40
     Davidson diagonalization with overlap

---- Real-time Memory Report at c_bands before calling an iterative solver
            55 MiB given to the printing process from OS
             0 MiB allocation reported by mallinfo(arena+hblkhd)
          1627 MiB available memory on the node where the printing process lives
------------------
     ethr =  7.65E-05,  avg # of iterations =  4.7

     total cpu time spent up to now is       12.4 secs

     total energy              =    -551.85200627 Ry
     estimated scf accuracy    <       0.20877260 Ry

     iteration # 10     ecut=    30.00 Ry     beta= 0.40
     Davidson diagonalization with overlap

---- Real-time Memory Report at c_bands before calling an iterative solver
            55 MiB given to the printing process from OS
             0 MiB allocation reported by mallinfo(arena+hblkhd)
          1626 MiB available memory on the node where the printing process lives
------------------
     ethr =  7.65E-05,  avg # of iterations =  1.0

     total cpu time spent up to now is       13.1 secs

     total energy              =    -551.84264272 Ry
     estimated scf accuracy    <       0.20217708 Ry

     iteration # 11     ecut=    30.00 Ry     beta= 0.40
     Davidson diagonalization with overlap

---- Real-time Memory Report at c_bands before calling an iterative solver
            55 MiB given to the printing process from OS
             0 MiB allocation reported by mallinfo(arena+hblkhd)
          1619 MiB available memory on the node where the printing process lives
------------------
     ethr =  7.65E-05,  avg # of iterations =  1.7

     total cpu time spent up to now is       13.9 secs

     total energy              =    -551.83986295 Ry
     estimated scf accuracy    <       0.13312687 Ry

     iteration # 12     ecut=    30.00 Ry     beta= 0.40
     Davidson diagonalization with overlap

---- Real-time Memory Report at c_bands before calling an iterative solver
            55 MiB given to the printing process from OS
             0 MiB allocation reported by mallinfo(arena+hblkhd)
          1619 MiB available memory on the node where the printing process lives
------------------
     ethr =  7.65E-05,  avg # of iterations =  2.3

     total cpu time spent up to now is       14.7 secs

     total energy              =    -551.84092640 Ry
     estimated scf accuracy    <       0.04755093 Ry

     iteration # 13     ecut=    30.00 Ry     beta= 0.40
     Davidson diagonalization with overlap

---- Real-time Memory Report at c_bands before calling an iterative solver
            55 MiB given to the printing process from OS
             0 MiB allocation reported by mallinfo(arena+hblkhd)
          1619 MiB available memory on the node where the printing process lives
------------------
     ethr =  7.65E-05,  avg # of iterations =  1.6

     total cpu time spent up to now is       15.5 secs

     total energy              =    -551.84165328 Ry
     estimated scf accuracy    <       0.02496783 Ry

     iteration # 14     ecut=    30.00 Ry     beta= 0.40
     Davidson diagonalization with overlap

---- Real-time Memory Report at c_bands before calling an iterative solver
            55 MiB given to the printing process from OS
             0 MiB allocation reported by mallinfo(arena+hblkhd)
          1619 MiB available memory on the node where the printing process lives
------------------
     ethr =  5.67E-05,  avg # of iterations =  1.8

     total cpu time spent up to now is       16.3 secs

     total energy              =    -551.84277218 Ry
     estimated scf accuracy    <       0.00922541 Ry

     iteration # 15     ecut=    30.00 Ry     beta= 0.40
     Davidson diagonalization with overlap

---- Real-time Memory Report at c_bands before calling an iterative solver
            55 MiB given to the printing process from OS
             0 MiB allocation reported by mallinfo(arena+hblkhd)
          1619 MiB available memory on the node where the printing process lives
------------------
     ethr =  2.10E-05,  avg # of iterations =  6.3

     total cpu time spent up to now is       17.3 secs

     total energy              =    -551.84767452 Ry
     estimated scf accuracy    <       0.05037281 Ry

     iteration # 16     ecut=    30.00 Ry     beta= 0.40
     Davidson diagonalization with overlap

---- Real-time Memory Report at c_bands before calling an iterative solver
            55 MiB given to the printing process from OS
             0 MiB allocation reported by mallinfo(arena+hblkhd)
          1619 MiB available memory on the node where the printing process lives
------------------
     ethr =  2.10E-05,  avg # of iterations =  1.8

     total cpu time spent up to now is       18.1 secs

     total energy              =    -551.84654703 Ry
     estimated scf accuracy    <       0.06239343 Ry

     iteration # 17     ecut=    30.00 Ry     beta= 0.40
     Davidson diagonalization with overlap

---- Real-time Memory Report at c_bands before calling an iterative solver
            55 MiB given to the printing process from OS
             0 MiB allocation reported by mallinfo(arena+hblkhd)
          1619 MiB available memory on the node where the printing process lives
------------------
     ethr =  2.10E-05,  avg # of iterations =  2.2

     total cpu time spent up to now is       19.0 secs

     total energy              =    -551.84623715 Ry
     estimated scf accuracy    <       0.08002941 Ry

     iteration # 18     ecut=    30.00 Ry     beta= 0.40
     Davidson diagonalization with overlap

---- Real-time Memory Report at c_bands before calling an iterative solver
            55 MiB given to the printing process from OS
             0 MiB allocation reported by mallinfo(arena+hblkhd)
          1619 MiB available memory on the node where the printing process lives
------------------
     ethr =  2.10E-05,  avg # of iterations =  1.6

     total cpu time spent up to now is       19.8 secs

     total energy              =    -551.84540412 Ry
     estimated scf accuracy    <       0.08473215 Ry

     iteration # 19     ecut=    30.00 Ry     beta= 0.40
     Davidson diagonalization with overlap

---- Real-time Memory Report at c_bands before calling an iterative solver
            55 MiB given to the printing process from OS
             0 MiB allocation reported by mallinfo(arena+hblkhd)
          1619 MiB available memory on the node where the printing process lives
------------------
     ethr =  2.10E-05,  avg # of iterations =  1.0

     total cpu time spent up to now is       20.6 secs

     total energy              =    -551.84516227 Ry
     estimated scf accuracy    <       0.07991046 Ry

     iteration # 20     ecut=    30.00 Ry     beta= 0.40
     Davidson diagonalization with overlap

---- Real-time Memory Report at c_bands before calling an iterative solver
            55 MiB given to the printing process from OS
             0 MiB allocation reported by mallinfo(arena+hblkhd)
          1619 MiB available memory on the node where the printing process lives
------------------
     ethr =  2.10E-05,  avg # of iterations =  1.3

     total cpu time spent up to now is       21.4 secs

     total energy              =    -551.84464386 Ry
     estimated scf accuracy    <       0.07489433 Ry

     iteration # 21     ecut=    30.00 Ry     beta= 0.40
     Davidson diagonalization with overlap

---- Real-time Memory Report at c_bands before calling an iterative solver
            55 MiB given to the printing process from OS
             0 MiB allocation reported by mallinfo(arena+hblkhd)
          1619 MiB available memory on the node where the printing process lives
------------------
     ethr =  2.10E-05,  avg # of iterations =  1.4

     total cpu time spent up to now is       22.2 secs

     total energy              =    -551.84479800 Ry
     estimated scf accuracy    <       0.07008130 Ry

     iteration # 22     ecut=    30.00 Ry     beta= 0.40
     Davidson diagonalization with overlap

---- Real-time Memory Report at c_bands before calling an iterative solver
            55 MiB given to the printing process from OS
             0 MiB allocation reported by mallinfo(arena+hblkhd)
          1619 MiB available memory on the node where the printing process lives
------------------
     ethr =  2.10E-05,  avg # of iterations =  1.0

     total cpu time spent up to now is       22.9 secs

     total energy              =    -551.84482255 Ry
     estimated scf accuracy    <       0.06841634 Ry

     iteration # 23     ecut=    30.00 Ry     beta= 0.40
     Davidson diagonalization with overlap

---- Real-time Memory Report at c_bands before calling an iterative solver
            55 MiB given to the printing process from OS
             0 MiB allocation reported by mallinfo(arena+hblkhd)
          1619 MiB available memory on the node where the printing process lives
------------------
     ethr =  2.10E-05,  avg # of iterations =  1.0

     total cpu time spent up to now is       23.7 secs

     total energy              =    -551.83426422 Ry
     estimated scf accuracy    <       0.06705436 Ry

     iteration # 24     ecut=    30.00 Ry     beta= 0.40
     Davidson diagonalization with overlap

---- Real-time Memory Report at c_bands before calling an iterative solver
            55 MiB given to the printing process from OS
             0 MiB allocation reported by mallinfo(arena+hblkhd)
          1620 MiB available memory on the node where the printing process lives
------------------
     c_bands:  1 eigenvalues not converged
     c_bands:  1 eigenvalues not converged
     c_bands:  1 eigenvalues not converged
     c_bands:  1 eigenvalues not converged
     c_bands:  2 eigenvalues not converged
     c_bands:  1 eigenvalues not converged
     c_bands:  1 eigenvalues not converged
     ethr =  2.10E-05,  avg # of iterations = 13.7

     total cpu time spent up to now is       25.3 secs

     total energy              =    -551.83762513 Ry
     estimated scf accuracy    <       0.56488144 Ry

     iteration # 25     ecut=    30.00 Ry     beta= 0.40
     Davidson diagonalization with overlap

---- Real-time Memory Report at c_bands before calling an iterative solver
            55 MiB given to the printing process from OS
             0 MiB allocation reported by mallinfo(arena+hblkhd)
          1619 MiB available memory on the node where the printing process lives
------------------
     ethr =  2.10E-05,  avg # of iterations =  7.9

     total cpu time spent up to now is       26.6 secs

     total energy              =    -551.84290389 Ry
     estimated scf accuracy    <       0.07435866 Ry

     iteration # 26     ecut=    30.00 Ry     beta= 0.40
     Davidson diagonalization with overlap

---- Real-time Memory Report at c_bands before calling an iterative solver
            55 MiB given to the printing process from OS
             0 MiB allocation reported by mallinfo(arena+hblkhd)
          1619 MiB available memory on the node where the printing process lives
------------------
     ethr =  2.10E-05,  avg # of iterations =  3.1

     total cpu time spent up to now is       27.4 secs

     total energy              =    -551.84376957 Ry
     estimated scf accuracy    <       0.02139903 Ry

     iteration # 27     ecut=    30.00 Ry     beta= 0.40
     Davidson diagonalization with overlap

---- Real-time Memory Report at c_bands before calling an iterative solver
            55 MiB given to the printing process from OS
             0 MiB allocation reported by mallinfo(arena+hblkhd)
          1619 MiB available memory on the node where the printing process lives
------------------
     ethr =  2.10E-05,  avg # of iterations =  1.0

     total cpu time spent up to now is       28.2 secs

     total energy              =    -551.84394825 Ry
     estimated scf accuracy    <       0.02039947 Ry

     iteration # 28     ecut=    30.00 Ry     beta= 0.40
     Davidson diagonalization with overlap

---- Real-time Memory Report at c_bands before calling an iterative solver
            55 MiB given to the printing process from OS
             0 MiB allocation reported by mallinfo(arena+hblkhd)
          1620 MiB available memory on the node where the printing process lives
------------------
     ethr =  2.10E-05,  avg # of iterations =  1.0

     total cpu time spent up to now is       28.9 secs

     total energy              =    -551.84414086 Ry
     estimated scf accuracy    <       0.01912262 Ry

     iteration # 29     ecut=    30.00 Ry     beta= 0.40
     Davidson diagonalization with overlap

---- Real-time Memory Report at c_bands before calling an iterative solver
            55 MiB given to the printing process from OS
             0 MiB allocation reported by mallinfo(arena+hblkhd)
          1619 MiB available memory on the node where the printing process lives
------------------
     ethr =  2.10E-05,  avg # of iterations =  1.0

     total cpu time spent up to now is       29.7 secs

     total energy              =    -551.84392200 Ry
     estimated scf accuracy    <       0.01848111 Ry

     iteration # 30     ecut=    30.00 Ry     beta= 0.40
     Davidson diagonalization with overlap

---- Real-time Memory Report at c_bands before calling an iterative solver
            55 MiB given to the printing process from OS
             0 MiB allocation reported by mallinfo(arena+hblkhd)
          1619 MiB available memory on the node where the printing process lives
------------------
     ethr =  2.10E-05,  avg # of iterations =  1.1

     total cpu time spent up to now is       30.5 secs

     total energy              =    -551.84287880 Ry
     estimated scf accuracy    <       0.01586011 Ry

     iteration # 31     ecut=    30.00 Ry     beta= 0.40
     Davidson diagonalization with overlap

---- Real-time Memory Report at c_bands before calling an iterative solver
            55 MiB given to the printing process from OS
             0 MiB allocation reported by mallinfo(arena+hblkhd)
          1621 MiB available memory on the node where the printing process lives
------------------
     ethr =  2.10E-05,  avg # of iterations =  6.0

     total cpu time spent up to now is       31.4 secs

     total energy              =    -551.84533431 Ry
     estimated scf accuracy    <       0.01954435 Ry

     iteration # 32     ecut=    30.00 Ry     beta= 0.40
     Davidson diagonalization with overlap

---- Real-time Memory Report at c_bands before calling an iterative solver
            55 MiB given to the printing process from OS
             0 MiB allocation reported by mallinfo(arena+hblkhd)
          1620 MiB available memory on the node where the printing process lives
------------------
     ethr =  2.10E-05,  avg # of iterations =  1.0

     total cpu time spent up to now is       32.2 secs

     total energy              =    -551.84525231 Ry
     estimated scf accuracy    <       0.01998665 Ry

     iteration # 33     ecut=    30.00 Ry     beta= 0.40
     Davidson diagonalization with overlap

---- Real-time Memory Report at c_bands before calling an iterative solver
            55 MiB given to the printing process from OS
             0 MiB allocation reported by mallinfo(arena+hblkhd)
          1620 MiB available memory on the node where the printing process lives
------------------
     ethr =  2.10E-05,  avg # of iterations =  1.0

     total cpu time spent up to now is       33.0 secs

     total energy              =    -551.84459591 Ry
     estimated scf accuracy    <       0.02031602 Ry

     iteration # 34     ecut=    30.00 Ry     beta= 0.40
     Davidson diagonalization with overlap

---- Real-time Memory Report at c_bands before calling an iterative solver
            55 MiB given to the printing process from OS
             0 MiB allocation reported by mallinfo(arena+hblkhd)
          1620 MiB available memory on the node where the printing process lives
------------------
     ethr =  2.10E-05,  avg # of iterations =  1.0

     total cpu time spent up to now is       33.8 secs

     total energy              =    -551.84408362 Ry
     estimated scf accuracy    <       0.01755360 Ry

     iteration # 35     ecut=    30.00 Ry     beta= 0.40
     Davidson diagonalization with overlap

---- Real-time Memory Report at c_bands before calling an iterative solver
            55 MiB given to the printing process from OS
             0 MiB allocation reported by mallinfo(arena+hblkhd)
          1620 MiB available memory on the node where the printing process lives
------------------
     ethr =  2.10E-05,  avg # of iterations =  1.1

     total cpu time spent up to now is       34.6 secs

     total energy              =    -551.84368939 Ry
     estimated scf accuracy    <       0.01474252 Ry

     iteration # 36     ecut=    30.00 Ry     beta= 0.40
     Davidson diagonalization with overlap

---- Real-time Memory Report at c_bands before calling an iterative solver
            55 MiB given to the printing process from OS
             0 MiB allocation reported by mallinfo(arena+hblkhd)
          1619 MiB available memory on the node where the printing process lives
------------------
     ethr =  2.10E-05,  avg # of iterations =  2.3

     total cpu time spent up to now is       35.4 secs

     total energy              =    -551.84405233 Ry
     estimated scf accuracy    <       0.00431650 Ry

     iteration # 37     ecut=    30.00 Ry     beta= 0.40
     Davidson diagonalization with overlap

---- Real-time Memory Report at c_bands before calling an iterative solver
            55 MiB given to the printing process from OS
             0 MiB allocation reported by mallinfo(arena+hblkhd)
          1619 MiB available memory on the node where the printing process lives
------------------
     ethr =  9.81E-06,  avg # of iterations =  3.9

     total cpu time spent up to now is       36.3 secs

     total energy              =    -551.84461935 Ry
     estimated scf accuracy    <       0.00062952 Ry

     iteration # 38     ecut=    30.00 Ry     beta= 0.40
     Davidson diagonalization with overlap

---- Real-time Memory Report at c_bands before calling an iterative solver
            55 MiB given to the printing process from OS
             0 MiB allocation reported by mallinfo(arena+hblkhd)
          1619 MiB available memory on the node where the printing process lives
------------------
     c_bands:  1 eigenvalues not converged
     ethr =  1.43E-06,  avg # of iterations =  6.6

     total cpu time spent up to now is       37.4 secs

     total energy              =    -551.84510732 Ry
     estimated scf accuracy    <       0.01052815 Ry

     iteration # 39     ecut=    30.00 Ry     beta= 0.40
     Davidson diagonalization with overlap

---- Real-time Memory Report at c_bands before calling an iterative solver
            55 MiB given to the printing process from OS
             0 MiB allocation reported by mallinfo(arena+hblkhd)
          1617 MiB available memory on the node where the printing process lives
------------------
     ethr =  1.43E-06,  avg # of iterations =  1.1

     total cpu time spent up to now is       38.3 secs

     total energy              =    -551.84507527 Ry
     estimated scf accuracy    <       0.01047448 Ry

     iteration # 40     ecut=    30.00 Ry     beta= 0.40
     Davidson diagonalization with overlap

---- Real-time Memory Report at c_bands before calling an iterative solver
            55 MiB given to the printing process from OS
             0 MiB allocation reported by mallinfo(arena+hblkhd)
          1609 MiB available memory on the node where the printing process lives
------------------
     ethr =  1.43E-06,  avg # of iterations =  1.0

     total cpu time spent up to now is       39.2 secs

     total energy              =    -551.84469502 Ry
     estimated scf accuracy    <       0.01039756 Ry

     iteration # 41     ecut=    30.00 Ry     beta= 0.40
     Davidson diagonalization with overlap

---- Real-time Memory Report at c_bands before calling an iterative solver
            55 MiB given to the printing process from OS
             0 MiB allocation reported by mallinfo(arena+hblkhd)
          1606 MiB available memory on the node where the printing process lives
------------------
     c_bands:  1 eigenvalues not converged
     ethr =  1.43E-06,  avg # of iterations =  6.4

     total cpu time spent up to now is       40.3 secs

     total energy              =    -551.84489735 Ry
     estimated scf accuracy    <       0.00043869 Ry

     iteration # 42     ecut=    30.00 Ry     beta= 0.40
     Davidson diagonalization with overlap

---- Real-time Memory Report at c_bands before calling an iterative solver
            55 MiB given to the printing process from OS
             0 MiB allocation reported by mallinfo(arena+hblkhd)
          1605 MiB available memory on the node where the printing process lives
------------------
     ethr =  9.97E-07,  avg # of iterations =  1.0

     total cpu time spent up to now is       41.3 secs

     total energy              =    -551.84491159 Ry
     estimated scf accuracy    <       0.00049807 Ry

     iteration # 43     ecut=    30.00 Ry     beta= 0.40
     Davidson diagonalization with overlap

---- Real-time Memory Report at c_bands before calling an iterative solver
            55 MiB given to the printing process from OS
             0 MiB allocation reported by mallinfo(arena+hblkhd)
          1605 MiB available memory on the node where the printing process lives
------------------
     ethr =  9.97E-07,  avg # of iterations =  1.0

     total cpu time spent up to now is       42.1 secs

     total energy              =    -551.84504175 Ry
     estimated scf accuracy    <       0.00054505 Ry

     iteration # 44     ecut=    30.00 Ry     beta= 0.40
     Davidson diagonalization with overlap

---- Real-time Memory Report at c_bands before calling an iterative solver
            55 MiB given to the printing process from OS
             0 MiB allocation reported by mallinfo(arena+hblkhd)
          1604 MiB available memory on the node where the printing process lives
------------------
     c_bands:  1 eigenvalues not converged
     c_bands:  2 eigenvalues not converged
     ethr =  9.97E-07,  avg # of iterations =  9.2

     total cpu time spent up to now is       43.9 secs

     total energy              =    -551.84672338 Ry
     estimated scf accuracy    <       0.02889967 Ry

     iteration # 45     ecut=    30.00 Ry     beta= 0.40
     Davidson diagonalization with overlap

---- Real-time Memory Report at c_bands before calling an iterative solver
            55 MiB given to the printing process from OS
             0 MiB allocation reported by mallinfo(arena+hblkhd)
          1598 MiB available memory on the node where the printing process lives
------------------
     c_bands:  1 eigenvalues not converged
     ethr =  9.97E-07,  avg # of iterations = 10.6

     total cpu time spent up to now is       46.3 secs

     total energy              =    -551.84546994 Ry
     estimated scf accuracy    <       0.11954886 Ry

     iteration # 46     ecut=    30.00 Ry     beta= 0.40
     Davidson diagonalization with overlap

---- Real-time Memory Report at c_bands before calling an iterative solver
            55 MiB given to the printing process from OS
             0 MiB allocation reported by mallinfo(arena+hblkhd)
          1597 MiB available memory on the node where the printing process lives
------------------
     ethr =  9.97E-07,  avg # of iterations =  9.0

     total cpu time spent up to now is       48.2 secs

     total energy              =    -551.84364985 Ry
     estimated scf accuracy    <       0.05652546 Ry

     iteration # 47     ecut=    30.00 Ry     beta= 0.40
     Davidson diagonalization with overlap

---- Real-time Memory Report at c_bands before calling an iterative solver
            55 MiB given to the printing process from OS
             0 MiB allocation reported by mallinfo(arena+hblkhd)
          1599 MiB available memory on the node where the printing process lives
------------------
     c_bands:  1 eigenvalues not converged
     c_bands:  1 eigenvalues not converged
     c_bands:  1 eigenvalues not converged
     c_bands:  1 eigenvalues not converged
     c_bands:  1 eigenvalues not converged
     c_bands:  1 eigenvalues not converged
     ethr =  9.97E-07,  avg # of iterations = 13.3

     total cpu time spent up to now is       50.6 secs

     total energy              =    -551.84485292 Ry
     estimated scf accuracy    <       0.00005878 Ry

     iteration # 48     ecut=    30.00 Ry     beta= 0.40
     Davidson diagonalization with overlap

---- Real-time Memory Report at c_bands before calling an iterative solver
            55 MiB given to the printing process from OS
             0 MiB allocation reported by mallinfo(arena+hblkhd)
          1599 MiB available memory on the node where the printing process lives
------------------
     c_bands:  1 eigenvalues not converged
     c_bands:  1 eigenvalues not converged
     c_bands:  1 eigenvalues not converged
     ethr =  1.34E-07,  avg # of iterations = 11.3

     total cpu time spent up to now is       52.5 secs

     total energy              =    -551.84497963 Ry
     estimated scf accuracy    <       0.00240794 Ry

     iteration # 49     ecut=    30.00 Ry     beta= 0.40
     Davidson diagonalization with overlap

---- Real-time Memory Report at c_bands before calling an iterative solver
            55 MiB given to the printing process from OS
             0 MiB allocation reported by mallinfo(arena+hblkhd)
          1595 MiB available memory on the node where the printing process lives
------------------
     ethr =  1.34E-07,  avg # of iterations =  4.4

     total cpu time spent up to now is       53.8 secs

     total energy              =    -551.84495108 Ry
     estimated scf accuracy    <       0.00393308 Ry

     iteration # 50     ecut=    30.00 Ry     beta= 0.40
     Davidson diagonalization with overlap

---- Real-time Memory Report at c_bands before calling an iterative solver
            55 MiB given to the printing process from OS
             0 MiB allocation reported by mallinfo(arena+hblkhd)
          1597 MiB available memory on the node where the printing process lives
------------------
     ethr =  1.34E-07,  avg # of iterations =  1.1

     total cpu time spent up to now is       55.0 secs

     total energy              =    -551.84485837 Ry
     estimated scf accuracy    <       0.00379163 Ry

     iteration # 51     ecut=    30.00 Ry     beta= 0.40
     Davidson diagonalization with overlap

---- Real-time Memory Report at c_bands before calling an iterative solver
            55 MiB given to the printing process from OS
             0 MiB allocation reported by mallinfo(arena+hblkhd)
          1596 MiB available memory on the node where the printing process lives
------------------
     c_bands:  1 eigenvalues not converged
     c_bands:  1 eigenvalues not converged
     ethr =  1.34E-07,  avg # of iterations =  8.6

     total cpu time spent up to now is       56.7 secs

     total energy              =    -551.84489784 Ry
     estimated scf accuracy    <       0.00032872 Ry

     iteration # 52     ecut=    30.00 Ry     beta= 0.40
     Davidson diagonalization with overlap

---- Real-time Memory Report at c_bands before calling an iterative solver
            55 MiB given to the printing process from OS
             0 MiB allocation reported by mallinfo(arena+hblkhd)
          1596 MiB available memory on the node where the printing process lives
------------------
     ethr =  1.34E-07,  avg # of iterations =  2.4

     total cpu time spent up to now is       58.0 secs

     total energy              =    -551.84490075 Ry
     estimated scf accuracy    <       0.00014554 Ry

     iteration # 53     ecut=    30.00 Ry     beta= 0.40
     Davidson diagonalization with overlap

---- Real-time Memory Report at c_bands before calling an iterative solver
            55 MiB given to the printing process from OS
             0 MiB allocation reported by mallinfo(arena+hblkhd)
          1596 MiB available memory on the node where the printing process lives
------------------
     ethr =  1.34E-07,  avg # of iterations =  1.0

     total cpu time spent up to now is       59.3 secs

     total energy              =    -551.84489211 Ry
     estimated scf accuracy    <       0.00013596 Ry

     iteration # 54     ecut=    30.00 Ry     beta= 0.40
     Davidson diagonalization with overlap

---- Real-time Memory Report at c_bands before calling an iterative solver
            55 MiB given to the printing process from OS
             0 MiB allocation reported by mallinfo(arena+hblkhd)
          1595 MiB available memory on the node where the printing process lives
------------------
     ethr =  1.34E-07,  avg # of iterations =  6.5

     total cpu time spent up to now is       60.4 secs

     total energy              =    -551.84490496 Ry
     estimated scf accuracy    <       0.00007656 Ry

     iteration # 55     ecut=    30.00 Ry     beta= 0.40
     Davidson diagonalization with overlap

---- Real-time Memory Report at c_bands before calling an iterative solver
            55 MiB given to the printing process from OS
             0 MiB allocation reported by mallinfo(arena+hblkhd)
          1596 MiB available memory on the node where the printing process lives
------------------
     ethr =  1.34E-07,  avg # of iterations =  1.0

     total cpu time spent up to now is       61.2 secs

     total energy              =    -551.84490082 Ry
     estimated scf accuracy    <       0.00007396 Ry

     iteration # 56     ecut=    30.00 Ry     beta= 0.40
     Davidson diagonalization with overlap

---- Real-time Memory Report at c_bands before calling an iterative solver
            55 MiB given to the printing process from OS
             0 MiB allocation reported by mallinfo(arena+hblkhd)
          1596 MiB available memory on the node where the printing process lives
------------------
     ethr =  1.34E-07,  avg # of iterations =  1.1

     total cpu time spent up to now is       62.0 secs

     total energy              =    -551.84489809 Ry
     estimated scf accuracy    <       0.00005852 Ry

     iteration # 57     ecut=    30.00 Ry     beta= 0.40
     Davidson diagonalization with overlap

---- Real-time Memory Report at c_bands before calling an iterative solver
            55 MiB given to the printing process from OS
             0 MiB allocation reported by mallinfo(arena+hblkhd)
          1596 MiB available memory on the node where the printing process lives
------------------
     ethr =  1.33E-07,  avg # of iterations =  2.3

     total cpu time spent up to now is       62.8 secs

     total energy              =    -551.84489906 Ry
     estimated scf accuracy    <       0.00000986 Ry

     iteration # 58     ecut=    30.00 Ry     beta= 0.40
     Davidson diagonalization with overlap

---- Real-time Memory Report at c_bands before calling an iterative solver
            55 MiB given to the printing process from OS
             0 MiB allocation reported by mallinfo(arena+hblkhd)
          1597 MiB available memory on the node where the printing process lives
------------------
     c_bands:  1 eigenvalues not converged
     c_bands:  1 eigenvalues not converged
     c_bands:  1 eigenvalues not converged
     c_bands:  1 eigenvalues not converged
     ethr =  2.24E-08,  avg # of iterations = 11.3

     total cpu time spent up to now is       64.0 secs

     total energy              =    -551.84491391 Ry
     estimated scf accuracy    <       0.00032922 Ry

     iteration # 59     ecut=    30.00 Ry     beta= 0.40
     Davidson diagonalization with overlap

---- Real-time Memory Report at c_bands before calling an iterative solver
            55 MiB given to the printing process from OS
             0 MiB allocation reported by mallinfo(arena+hblkhd)
          1597 MiB available memory on the node where the printing process lives
------------------
     ethr =  2.24E-08,  avg # of iterations =  2.2

     total cpu time spent up to now is       64.9 secs

     total energy              =    -551.84491805 Ry
     estimated scf accuracy    <       0.00037399 Ry

     iteration # 60     ecut=    30.00 Ry     beta= 0.40
     Davidson diagonalization with overlap

---- Real-time Memory Report at c_bands before calling an iterative solver
            55 MiB given to the printing process from OS
             0 MiB allocation reported by mallinfo(arena+hblkhd)
          1597 MiB available memory on the node where the printing process lives
------------------
     ethr =  2.24E-08,  avg # of iterations =  3.4

     total cpu time spent up to now is       65.8 secs

     total energy              =    -551.84491924 Ry
     estimated scf accuracy    <       0.00059449 Ry

     iteration # 61     ecut=    30.00 Ry     beta= 0.40
     Davidson diagonalization with overlap

---- Real-time Memory Report at c_bands before calling an iterative solver
            55 MiB given to the printing process from OS
             0 MiB allocation reported by mallinfo(arena+hblkhd)
          1597 MiB available memory on the node where the printing process lives
------------------
     ethr =  2.24E-08,  avg # of iterations =  1.0

     total cpu time spent up to now is       66.6 secs

     total energy              =    -551.84492237 Ry
     estimated scf accuracy    <       0.00059749 Ry

     iteration # 62     ecut=    30.00 Ry     beta= 0.40
     Davidson diagonalization with overlap

---- Real-time Memory Report at c_bands before calling an iterative solver
            55 MiB given to the printing process from OS
             0 MiB allocation reported by mallinfo(arena+hblkhd)
          1596 MiB available memory on the node where the printing process lives
------------------
     ethr =  2.24E-08,  avg # of iterations =  1.7

     total cpu time spent up to now is       67.4 secs

     total energy              =    -551.84491966 Ry
     estimated scf accuracy    <       0.00065844 Ry

     iteration # 63     ecut=    30.00 Ry     beta= 0.40
     Davidson diagonalization with overlap

---- Real-time Memory Report at c_bands before calling an iterative solver
            55 MiB given to the printing process from OS
             0 MiB allocation reported by mallinfo(arena+hblkhd)
          1596 MiB available memory on the node where the printing process lives
------------------
     ethr =  2.24E-08,  avg # of iterations =  1.1

     total cpu time spent up to now is       68.2 secs

     total energy              =    -551.84489246 Ry
     estimated scf accuracy    <       0.00065664 Ry

     iteration # 64     ecut=    30.00 Ry     beta= 0.40
     Davidson diagonalization with overlap

---- Real-time Memory Report at c_bands before calling an iterative solver
            55 MiB given to the printing process from OS
             0 MiB allocation reported by mallinfo(arena+hblkhd)
          1596 MiB available memory on the node where the printing process lives
------------------
     c_bands:  1 eigenvalues not converged
     ethr =  2.24E-08,  avg # of iterations =  9.7

     total cpu time spent up to now is       69.5 secs

     total energy              =    -551.84490499 Ry
     estimated scf accuracy    <       0.00000349 Ry

     iteration # 65     ecut=    30.00 Ry     beta= 0.40
     Davidson diagonalization with overlap

---- Real-time Memory Report at c_bands before calling an iterative solver
            55 MiB given to the printing process from OS
             0 MiB allocation reported by mallinfo(arena+hblkhd)
          1596 MiB available memory on the node where the printing process lives
------------------
     ethr =  7.93E-09,  avg # of iterations =  4.0

     total cpu time spent up to now is       70.4 secs

     total energy              =    -551.84490508 Ry
     estimated scf accuracy    <       0.00000175 Ry

     iteration # 66     ecut=    30.00 Ry     beta= 0.40
     Davidson diagonalization with overlap

---- Real-time Memory Report at c_bands before calling an iterative solver
            55 MiB given to the printing process from OS
             0 MiB allocation reported by mallinfo(arena+hblkhd)
          1595 MiB available memory on the node where the printing process lives
------------------
     ethr =  3.97E-09,  avg # of iterations =  8.9

     total cpu time spent up to now is       71.6 secs

     total energy              =    -551.84490561 Ry
     estimated scf accuracy    <       0.00004204 Ry

     iteration # 67     ecut=    30.00 Ry     beta= 0.40
     Davidson diagonalization with overlap

---- Real-time Memory Report at c_bands before calling an iterative solver
            55 MiB given to the printing process from OS
             0 MiB allocation reported by mallinfo(arena+hblkhd)
          1595 MiB available memory on the node where the printing process lives
------------------
     ethr =  3.97E-09,  avg # of iterations =  2.1

     total cpu time spent up to now is       72.4 secs

     total energy              =    -551.84490549 Ry
     estimated scf accuracy    <       0.00003709 Ry

     iteration # 68     ecut=    30.00 Ry     beta= 0.40
     Davidson diagonalization with overlap

---- Real-time Memory Report at c_bands before calling an iterative solver
            55 MiB given to the printing process from OS
             0 MiB allocation reported by mallinfo(arena+hblkhd)
          1595 MiB available memory on the node where the printing process lives
------------------
     ethr =  3.97E-09,  avg # of iterations =  2.4

     total cpu time spent up to now is       73.3 secs

     total energy              =    -551.84490508 Ry
     estimated scf accuracy    <       0.00003235 Ry

     iteration # 69     ecut=    30.00 Ry     beta= 0.40
     Davidson diagonalization with overlap

---- Real-time Memory Report at c_bands before calling an iterative solver
            55 MiB given to the printing process from OS
             0 MiB allocation reported by mallinfo(arena+hblkhd)
          1595 MiB available memory on the node where the printing process lives
------------------
     ethr =  3.97E-09,  avg # of iterations =  4.6

     total cpu time spent up to now is       74.2 secs

     total energy              =    -551.84490505 Ry
     estimated scf accuracy    <       0.00001330 Ry

     iteration # 70     ecut=    30.00 Ry     beta= 0.40
     Davidson diagonalization with overlap

---- Real-time Memory Report at c_bands before calling an iterative solver
            55 MiB given to the printing process from OS
             0 MiB allocation reported by mallinfo(arena+hblkhd)
          1595 MiB available memory on the node where the printing process lives
------------------
     ethr =  3.97E-09,  avg # of iterations =  4.0

     total cpu time spent up to now is       75.0 secs

     total energy              =    -551.84490498 Ry
     estimated scf accuracy    <       0.00000621 Ry

     iteration # 71     ecut=    30.00 Ry     beta= 0.40
     Davidson diagonalization with overlap

---- Real-time Memory Report at c_bands before calling an iterative solver
            55 MiB given to the printing process from OS
             0 MiB allocation reported by mallinfo(arena+hblkhd)
          1595 MiB available memory on the node where the printing process lives
------------------
     ethr =  3.97E-09,  avg # of iterations =  4.7

     total cpu time spent up to now is       75.9 secs

     total energy              =    -551.84490525 Ry
     estimated scf accuracy    <       0.00000016 Ry

     iteration # 72     ecut=    30.00 Ry     beta= 0.40
     Davidson diagonalization with overlap

---- Real-time Memory Report at c_bands before calling an iterative solver
            55 MiB given to the printing process from OS
             0 MiB allocation reported by mallinfo(arena+hblkhd)
          1595 MiB available memory on the node where the printing process lives
------------------
     ethr =  3.74E-10,  avg # of iterations =  7.6

     total cpu time spent up to now is       77.1 secs

     total energy              =    -551.84490536 Ry
     estimated scf accuracy    <       0.00000113 Ry

     iteration # 73     ecut=    30.00 Ry     beta= 0.40
     Davidson diagonalization with overlap

---- Real-time Memory Report at c_bands before calling an iterative solver
            55 MiB given to the printing process from OS
             0 MiB allocation reported by mallinfo(arena+hblkhd)
          1595 MiB available memory on the node where the printing process lives
------------------
     ethr =  3.74E-10,  avg # of iterations =  1.5

     total cpu time spent up to now is       77.9 secs

     total energy              =    -551.84490538 Ry
     estimated scf accuracy    <       0.00000126 Ry

     iteration # 74     ecut=    30.00 Ry     beta= 0.40
     Davidson diagonalization with overlap

---- Real-time Memory Report at c_bands before calling an iterative solver
            55 MiB given to the printing process from OS
             0 MiB allocation reported by mallinfo(arena+hblkhd)
          1594 MiB available memory on the node where the printing process lives
------------------
     ethr =  3.74E-10,  avg # of iterations =  2.8

     total cpu time spent up to now is       78.7 secs

     total energy              =    -551.84490522 Ry
     estimated scf accuracy    <       0.00000211 Ry

     iteration # 75     ecut=    30.00 Ry     beta= 0.40
     Davidson diagonalization with overlap

---- Real-time Memory Report at c_bands before calling an iterative solver
            55 MiB given to the printing process from OS
             0 MiB allocation reported by mallinfo(arena+hblkhd)
          1594 MiB available memory on the node where the printing process lives
------------------
     ethr =  3.74E-10,  avg # of iterations =  8.1

     total cpu time spent up to now is       79.9 secs

     total energy              =    -551.84490534 Ry
     estimated scf accuracy    <       0.00000045 Ry

     iteration # 76     ecut=    30.00 Ry     beta= 0.40
     Davidson diagonalization with overlap

---- Real-time Memory Report at c_bands before calling an iterative solver
            55 MiB given to the printing process from OS
             0 MiB allocation reported by mallinfo(arena+hblkhd)
          1594 MiB available memory on the node where the printing process lives
------------------
     ethr =  3.74E-10,  avg # of iterations =  1.0

     total cpu time spent up to now is       80.6 secs

     total energy              =    -551.84490533 Ry
     estimated scf accuracy    <       0.00000046 Ry

     iteration # 77     ecut=    30.00 Ry     beta= 0.40
     Davidson diagonalization with overlap

---- Real-time Memory Report at c_bands before calling an iterative solver
            55 MiB given to the printing process from OS
             0 MiB allocation reported by mallinfo(arena+hblkhd)
          1594 MiB available memory on the node where the printing process lives
------------------
     ethr =  3.74E-10,  avg # of iterations =  1.0

     total cpu time spent up to now is       81.4 secs

     total energy              =    -551.84490530 Ry
     estimated scf accuracy    <       0.00000040 Ry

     iteration # 78     ecut=    30.00 Ry     beta= 0.40
     Davidson diagonalization with overlap

---- Real-time Memory Report at c_bands before calling an iterative solver
            55 MiB given to the printing process from OS
             0 MiB allocation reported by mallinfo(arena+hblkhd)
          1594 MiB available memory on the node where the printing process lives
------------------
     ethr =  3.74E-10,  avg # of iterations =  5.1

     total cpu time spent up to now is       82.4 secs

     total energy              =    -551.84490533 Ry
     estimated scf accuracy    <       0.00000011 Ry

     iteration # 79     ecut=    30.00 Ry     beta= 0.40
     Davidson diagonalization with overlap

---- Real-time Memory Report at c_bands before calling an iterative solver
            55 MiB given to the printing process from OS
             0 MiB allocation reported by mallinfo(arena+hblkhd)
          1594 MiB available memory on the node where the printing process lives
------------------
     ethr =  2.50E-10,  avg # of iterations =  6.3

     total cpu time spent up to now is       83.4 secs

     total energy              =    -551.84490535 Ry
     estimated scf accuracy    <       0.00000201 Ry

     iteration # 80     ecut=    30.00 Ry     beta= 0.40
     Davidson diagonalization with overlap

---- Real-time Memory Report at c_bands before calling an iterative solver
            55 MiB given to the printing process from OS
             0 MiB allocation reported by mallinfo(arena+hblkhd)
          1595 MiB available memory on the node where the printing process lives
------------------
     ethr =  2.50E-10,  avg # of iterations =  1.0

     total cpu time spent up to now is       84.2 secs

     total energy              =    -551.84490497 Ry
     estimated scf accuracy    <       0.00000195 Ry

     End of self-consistent calculation

     convergence NOT achieved after  80 iterations: stopping

     Writing config to output data dir ./out/feo_af.save/ :
     XML data file, charge density

     init_run     :      1.05s CPU      1.05s WALL (       1 calls)
     electrons    :     82.67s CPU     83.04s WALL (       1 calls)

     Called by init_run:
     wfcinit      :      0.49s CPU      0.49s WALL (       1 calls)
     wfcinit:atom :      0.00s CPU      0.00s WALL (      27 calls)
     wfcinit:wfcr :      0.46s CPU      0.46s WALL (      27 calls)
     potinit      :      0.18s CPU      0.18s WALL (       1 calls)
     hinit0       :      0.37s CPU      0.37s WALL (       1 calls)

     Called by electrons:
     c_bands      :     71.23s CPU     71.52s WALL (      80 calls)
     sum_band     :     10.56s CPU     10.60s WALL (      80 calls)
     v_of_rho     :      0.52s CPU      0.55s WALL (      81 calls)
     v_h          :      0.10s CPU      0.11s WALL (      81 calls)
     v_xc         :      0.42s CPU      0.43s WALL (      81 calls)
     mix_rho      :      0.19s CPU      0.19s WALL (      80 calls)

     Called by c_bands:
     init_us_2    :      0.99s CPU      1.00s WALL (    4347 calls)
     cegterg      :     68.91s CPU     69.18s WALL (    2160 calls)

     Called by sum_band:
     sum_band:wei :      0.00s CPU      0.00s WALL (      80 calls)
     sum_band:loo :     10.44s CPU     10.48s WALL (      80 calls)
     sum_band:buf :      0.04s CPU      0.04s WALL (    2160 calls)
     sum_band:ini :      0.49s CPU      0.49s WALL (    2160 calls)

     Called by *egterg:
     cdiaghg      :      3.80s CPU      3.82s WALL (   10931 calls)
     cegterg:over :      3.63s CPU      3.65s WALL (    8771 calls)
     cegterg:upda :      1.85s CPU      1.85s WALL (    8771 calls)
     cegterg:last :      2.69s CPU      2.70s WALL (    3645 calls)
     h_psi        :     55.62s CPU     55.85s WALL (   10958 calls)
     g_psi        :      0.16s CPU      0.16s WALL (    8771 calls)

     Called by h_psi:
     h_psi:calbec :      4.79s CPU      4.81s WALL (   10958 calls)
     vloc_psi     :     46.63s CPU     46.82s WALL (   10958 calls)
     add_vuspsi   :      4.09s CPU      4.11s WALL (   10958 calls)

     General routines
     calbec       :      4.78s CPU      4.80s WALL (   10958 calls)
     fft          :      0.42s CPU      0.43s WALL (     405 calls)
     ffts         :      0.17s CPU      0.18s WALL (     161 calls)
     fftw         :     47.04s CPU     47.22s WALL (  276944 calls)
     interpolate  :      0.25s CPU      0.26s WALL (      81 calls)
     davcio       :      0.00s CPU      0.00s WALL (      45 calls)

     Parallel routines

     PWSCF        :   1m23.78s CPU   1m24.16s WALL


   This run was terminated on:  15:47:57  10Sep2024            

=------------------------------------------------------------------------------=
   JOB DONE.
=------------------------------------------------------------------------------=
