
     Program PWSCF v.7.3.1 starts on 20Sep2024 at  1:51:59 

     This program is part of the open-source Quantum ESPRESSO suite
     for quantum simulation of materials; please cite
         "P. Giannozzi et al., J. Phys.:Condens. Matter 21 395502 (2009);
         "P. Giannozzi et al., J. Phys.:Condens. Matter 29 465901 (2017);
         "P. Giannozzi et al., J. Chem. Phys. 152 154105 (2020);
          URL http://www.quantum-espresso.org", 
     in publications or presentations arising from this work. More details at
     http://www.quantum-espresso.org/quote

     Parallel version (MPI), running on     1 processors

     MPI processes distributed on     1 nodes
     6372 MiB available memory on the printing compute node when the environment starts

     Waiting for input...
     Reading input from standard input

     Current dimensions of program PWSCF are:
     Max number of different atomic species (ntypx) = 10
     Max number of k-points (npk) =  40000
     Max angular momentum in pseudopotentials (lmaxx) =  4
     Message from routine volume:
     axis vectors are left-handed

     Subspace diagonalization in iterative solution of the eigenvalue problem:
     a serial algorithm will be used


     G-vector sticks info
     --------------------
     sticks:   dense  smooth     PW     G-vecs:    dense   smooth      PW
     Sum        1061     539    195                17255     6111    1297

     Using Slab Decomposition



     bravais-lattice index     =            0
     lattice parameter (alat)  =       8.1900  a.u.
     unit-cell volume          =     274.6766 (a.u.)^3
     number of atoms/cell      =            4
     number of atomic types    =            3
     number of electrons       =        44.00
     number of Kohn-Sham states=           30
     kinetic-energy cutoff     =      30.0000  Ry
     charge density cutoff     =     240.0000  Ry
     scf convergence threshold =      4.0E-10
     mixing beta               =       0.4000
     number of iterations used =            8  plain     mixing
     Exchange-correlation= SLA  PW   NOGX NOGC
                           (   1   4   0   0   0   0   0)

     celldm(1)=   8.190000  celldm(2)=   0.000000  celldm(3)=   0.000000
     celldm(4)=   0.000000  celldm(5)=   0.000000  celldm(6)=   0.000000

     crystal axes: (cart. coord. in units of alat)
               a(1) = (   0.500000   0.500000   1.000000 )  
               a(2) = (   0.500000   1.000000   0.500000 )  
               a(3) = (   1.000000   0.500000   0.500000 )  

     reciprocal axes: (cart. coord. in units 2 pi/alat)
               b(1) = ( -0.500000 -0.500000  1.500000 )  
               b(2) = ( -0.500000  1.500000 -0.500000 )  
               b(3) = (  1.500000 -0.500000 -0.500000 )  


     PseudoPot. # 1 for Fe read from file:
     ./pseudo/Fe.upf
     MD5 check sum: b1fb9d3cb1d156aba92c681262384fac
     Pseudo is Norm-conserving + core correction, Zval = 16.0
     Generated using ONCVPSP code by D. R. Hamann
     Using radial grid of 1408 points,  6 beta functions with: 
                l(1) =   0
                l(2) =   0
                l(3) =   1
                l(4) =   1
                l(5) =   2
                l(6) =   2

     PseudoPot. # 2 for Fe read from file:
     ./pseudo/Fe.upf
     MD5 check sum: b1fb9d3cb1d156aba92c681262384fac
     Pseudo is Norm-conserving + core correction, Zval = 16.0
     Generated using ONCVPSP code by D. R. Hamann
     Using radial grid of 1408 points,  6 beta functions with: 
                l(1) =   0
                l(2) =   0
                l(3) =   1
                l(4) =   1
                l(5) =   2
                l(6) =   2

     PseudoPot. # 3 for O  read from file:
     ./pseudo/O.upf
     MD5 check sum: 86ed389b6a5065e60c3f64c68a612de9
     Pseudo is Norm-conserving + core correction, Zval =  6.0
     Generated using ONCVPSP code by D. R. Hamann
     Using radial grid of  926 points,  5 beta functions with: 
                l(1) =   0
                l(2) =   0
                l(3) =   1
                l(4) =   1
                l(5) =   2

     atomic species   valence    mass     pseudopotential
     Fe1              16.00     1.00000     Fe( 1.00)
     Fe2              16.00     1.00000     Fe( 1.00)
     O                 6.00     1.00000     O ( 1.00)

     Starting magnetic structure 
     atomic species   magnetization
     Fe1             0.670
     Fe2            -0.670
     O               0.000

     No symmetry found


                                    s                        frac. trans.

      isym =  1     identity                                     

 cryst.   s( 1) = (     1          0          0      )
                  (     0          1          0      )
                  (     0          0          1      )

 cart.    s( 1) = (  1.0000000  0.0000000  0.0000000 )
                  (  0.0000000  1.0000000  0.0000000 )
                  (  0.0000000  0.0000000  1.0000000 )


   Cartesian axes

     site n.     atom                  positions (alat units)
         1        Fe1    tau(   1) = (   0.0000000   0.0000000   0.0000000  )
         2        Fe2    tau(   2) = (   1.0000000   1.0000000   1.0000000  )
         3        O      tau(   3) = (   0.5000000   0.5000000   0.5000000  )
         4        O      tau(   4) = (   1.5000000   1.5000000   1.5000000  )

   Crystallographic axes

     site n.     atom                  positions (cryst. coord.)
         1        Fe1    tau(   1) = (  0.0000000  0.0000000  0.0000000  )
         2        Fe2    tau(   2) = (  0.5000000  0.5000000  0.5000000  )
         3        O      tau(   3) = (  0.2500000  0.2500000  0.2500000  )
         4        O      tau(   4) = (  0.7500000  0.7500000  0.7500000  )

     number of k points=   343  Gaussian smearing, width (Ry)=  0.0100
                       cart. coord. in units 2pi/alat
        k(    1) = (   0.0000000   0.0000000   0.0000000), wk =   0.0029155
        k(    2) = (   0.2142857  -0.0714286  -0.0714286), wk =   0.0029155
        k(    3) = (   0.4285714  -0.1428571  -0.1428571), wk =   0.0029155
        k(    4) = (   0.6428571  -0.2142857  -0.2142857), wk =   0.0029155
        k(    5) = (  -0.6428571   0.2142857   0.2142857), wk =   0.0029155
        k(    6) = (  -0.4285714   0.1428571   0.1428571), wk =   0.0029155
        k(    7) = (  -0.2142857   0.0714286   0.0714286), wk =   0.0029155
        k(    8) = (  -0.0714286   0.2142857  -0.0714286), wk =   0.0029155
        k(    9) = (   0.1428571   0.1428571  -0.1428571), wk =   0.0029155
        k(   10) = (   0.3571429   0.0714286  -0.2142857), wk =   0.0029155
        k(   11) = (   0.5714286   0.0000000  -0.2857143), wk =   0.0029155
        k(   12) = (  -0.7142857   0.4285714   0.1428571), wk =   0.0029155
        k(   13) = (  -0.5000000   0.3571429   0.0714286), wk =   0.0029155
        k(   14) = (  -0.2857143   0.2857143   0.0000000), wk =   0.0029155
        k(   15) = (  -0.1428571   0.4285714  -0.1428571), wk =   0.0029155
        k(   16) = (   0.0714286   0.3571429  -0.2142857), wk =   0.0029155
        k(   17) = (   0.2857143   0.2857143  -0.2857143), wk =   0.0029155
        k(   18) = (   0.5000000   0.2142857  -0.3571429), wk =   0.0029155
        k(   19) = (  -0.7857143   0.6428571   0.0714286), wk =   0.0029155
        k(   20) = (  -0.5714286   0.5714286   0.0000000), wk =   0.0029155
        k(   21) = (  -0.3571429   0.5000000  -0.0714286), wk =   0.0029155
        k(   22) = (  -0.2142857   0.6428571  -0.2142857), wk =   0.0029155
        k(   23) = (   0.0000000   0.5714286  -0.2857143), wk =   0.0029155
        k(   24) = (   0.2142857   0.5000000  -0.3571429), wk =   0.0029155
        k(   25) = (   0.4285714   0.4285714  -0.4285714), wk =   0.0029155
        k(   26) = (  -0.8571429   0.8571429   0.0000000), wk =   0.0029155
        k(   27) = (  -0.6428571   0.7857143  -0.0714286), wk =   0.0029155
        k(   28) = (  -0.4285714   0.7142857  -0.1428571), wk =   0.0029155
        k(   29) = (   0.2142857  -0.6428571   0.2142857), wk =   0.0029155
        k(   30) = (   0.4285714  -0.7142857   0.1428571), wk =   0.0029155
        k(   31) = (   0.6428571  -0.7857143   0.0714286), wk =   0.0029155
        k(   32) = (   0.8571429  -0.8571429   0.0000000), wk =   0.0029155
        k(   33) = (  -0.4285714  -0.4285714   0.4285714), wk =   0.0029155
        k(   34) = (  -0.2142857  -0.5000000   0.3571429), wk =   0.0029155
        k(   35) = (  -0.0000000  -0.5714286   0.2857143), wk =   0.0029155
        k(   36) = (   0.1428571  -0.4285714   0.1428571), wk =   0.0029155
        k(   37) = (   0.3571429  -0.5000000   0.0714286), wk =   0.0029155
        k(   38) = (   0.5714286  -0.5714286   0.0000000), wk =   0.0029155
        k(   39) = (   0.7857143  -0.6428571  -0.0714286), wk =   0.0029155
        k(   40) = (  -0.5000000  -0.2142857   0.3571429), wk =   0.0029155
        k(   41) = (  -0.2857143  -0.2857143   0.2857143), wk =   0.0029155
        k(   42) = (  -0.0714286  -0.3571429   0.2142857), wk =   0.0029155
        k(   43) = (   0.0714286  -0.2142857   0.0714286), wk =   0.0029155
        k(   44) = (   0.2857143  -0.2857143   0.0000000), wk =   0.0029155
        k(   45) = (   0.5000000  -0.3571429  -0.0714286), wk =   0.0029155
        k(   46) = (   0.7142857  -0.4285714  -0.1428571), wk =   0.0029155
        k(   47) = (  -0.5714286  -0.0000000   0.2857143), wk =   0.0029155
        k(   48) = (  -0.3571429  -0.0714286   0.2142857), wk =   0.0029155
        k(   49) = (  -0.1428571  -0.1428571   0.1428571), wk =   0.0029155
        k(   50) = (  -0.0714286  -0.0714286   0.2142857), wk =   0.0029155
        k(   51) = (   0.1428571  -0.1428571   0.1428571), wk =   0.0029155
        k(   52) = (   0.3571429  -0.2142857   0.0714286), wk =   0.0029155
        k(   53) = (   0.5714286  -0.2857143   0.0000000), wk =   0.0029155
        k(   54) = (  -0.7142857   0.1428571   0.4285714), wk =   0.0029155
        k(   55) = (  -0.5000000   0.0714286   0.3571429), wk =   0.0029155
        k(   56) = (  -0.2857143   0.0000000   0.2857143), wk =   0.0029155
        k(   57) = (  -0.1428571   0.1428571   0.1428571), wk =   0.0029155
        k(   58) = (   0.0714286   0.0714286   0.0714286), wk =   0.0029155
        k(   59) = (   0.2857143   0.0000000   0.0000000), wk =   0.0029155
        k(   60) = (   0.5000000  -0.0714286  -0.0714286), wk =   0.0029155
        k(   61) = (  -0.7857143   0.3571429   0.3571429), wk =   0.0029155
        k(   62) = (  -0.5714286   0.2857143   0.2857143), wk =   0.0029155
        k(   63) = (  -0.3571429   0.2142857   0.2142857), wk =   0.0029155
        k(   64) = (  -0.2142857   0.3571429   0.0714286), wk =   0.0029155
        k(   65) = (   0.0000000   0.2857143   0.0000000), wk =   0.0029155
        k(   66) = (   0.2142857   0.2142857  -0.0714286), wk =   0.0029155
        k(   67) = (   0.4285714   0.1428571  -0.1428571), wk =   0.0029155
        k(   68) = (  -0.8571429   0.5714286   0.2857143), wk =   0.0029155
        k(   69) = (  -0.6428571   0.5000000   0.2142857), wk =   0.0029155
        k(   70) = (  -0.4285714   0.4285714   0.1428571), wk =   0.0029155
        k(   71) = (  -0.2857143   0.5714286   0.0000000), wk =   0.0029155
        k(   72) = (  -0.0714286   0.5000000  -0.0714286), wk =   0.0029155
        k(   73) = (   0.1428571   0.4285714  -0.1428571), wk =   0.0029155
        k(   74) = (   0.3571429   0.3571429  -0.2142857), wk =   0.0029155
        k(   75) = (  -0.9285714   0.7857143   0.2142857), wk =   0.0029155
        k(   76) = (  -0.7142857   0.7142857   0.1428571), wk =   0.0029155
        k(   77) = (  -0.5000000   0.6428571   0.0714286), wk =   0.0029155
        k(   78) = (   0.1428571  -0.7142857   0.4285714), wk =   0.0029155
        k(   79) = (   0.3571429  -0.7857143   0.3571429), wk =   0.0029155
        k(   80) = (   0.5714286  -0.8571429   0.2857143), wk =   0.0029155
        k(   81) = (   0.7857143  -0.9285714   0.2142857), wk =   0.0029155
        k(   82) = (  -0.5000000  -0.5000000   0.6428571), wk =   0.0029155
        k(   83) = (  -0.2857143  -0.5714286   0.5714286), wk =   0.0029155
        k(   84) = (  -0.0714286  -0.6428571   0.5000000), wk =   0.0029155
        k(   85) = (   0.0714286  -0.5000000   0.3571429), wk =   0.0029155
        k(   86) = (   0.2857143  -0.5714286   0.2857143), wk =   0.0029155
        k(   87) = (   0.5000000  -0.6428571   0.2142857), wk =   0.0029155
        k(   88) = (   0.7142857  -0.7142857   0.1428571), wk =   0.0029155
        k(   89) = (  -0.5714286  -0.2857143   0.5714286), wk =   0.0029155
        k(   90) = (  -0.3571429  -0.3571429   0.5000000), wk =   0.0029155
        k(   91) = (  -0.1428571  -0.4285714   0.4285714), wk =   0.0029155
        k(   92) = (   0.0000000  -0.2857143   0.2857143), wk =   0.0029155
        k(   93) = (   0.2142857  -0.3571429   0.2142857), wk =   0.0029155
        k(   94) = (   0.4285714  -0.4285714   0.1428571), wk =   0.0029155
        k(   95) = (   0.6428571  -0.5000000   0.0714286), wk =   0.0029155
        k(   96) = (  -0.6428571  -0.0714286   0.5000000), wk =   0.0029155
        k(   97) = (  -0.4285714  -0.1428571   0.4285714), wk =   0.0029155
        k(   98) = (  -0.2142857  -0.2142857   0.3571429), wk =   0.0029155
        k(   99) = (  -0.1428571  -0.1428571   0.4285714), wk =   0.0029155
        k(  100) = (   0.0714286  -0.2142857   0.3571429), wk =   0.0029155
        k(  101) = (   0.2857143  -0.2857143   0.2857143), wk =   0.0029155
        k(  102) = (   0.5000000  -0.3571429   0.2142857), wk =   0.0029155
        k(  103) = (  -0.7857143   0.0714286   0.6428571), wk =   0.0029155
        k(  104) = (  -0.5714286   0.0000000   0.5714286), wk =   0.0029155
        k(  105) = (  -0.3571429  -0.0714286   0.5000000), wk =   0.0029155
        k(  106) = (  -0.2142857   0.0714286   0.3571429), wk =   0.0029155
        k(  107) = (   0.0000000   0.0000000   0.2857143), wk =   0.0029155
        k(  108) = (   0.2142857  -0.0714286   0.2142857), wk =   0.0029155
        k(  109) = (   0.4285714  -0.1428571   0.1428571), wk =   0.0029155
        k(  110) = (  -0.8571429   0.2857143   0.5714286), wk =   0.0029155
        k(  111) = (  -0.6428571   0.2142857   0.5000000), wk =   0.0029155
        k(  112) = (  -0.4285714   0.1428571   0.4285714), wk =   0.0029155
        k(  113) = (  -0.2857143   0.2857143   0.2857143), wk =   0.0029155
        k(  114) = (  -0.0714286   0.2142857   0.2142857), wk =   0.0029155
        k(  115) = (   0.1428571   0.1428571   0.1428571), wk =   0.0029155
        k(  116) = (   0.3571429   0.0714286   0.0714286), wk =   0.0029155
        k(  117) = (  -0.9285714   0.5000000   0.5000000), wk =   0.0029155
        k(  118) = (  -0.7142857   0.4285714   0.4285714), wk =   0.0029155
        k(  119) = (  -0.5000000   0.3571429   0.3571429), wk =   0.0029155
        k(  120) = (  -0.3571429   0.5000000   0.2142857), wk =   0.0029155
        k(  121) = (  -0.1428571   0.4285714   0.1428571), wk =   0.0029155
        k(  122) = (   0.0714286   0.3571429   0.0714286), wk =   0.0029155
        k(  123) = (   0.2857143   0.2857143   0.0000000), wk =   0.0029155
        k(  124) = (  -1.0000000   0.7142857   0.4285714), wk =   0.0029155
        k(  125) = (  -0.7857143   0.6428571   0.3571429), wk =   0.0029155
        k(  126) = (  -0.5714286   0.5714286   0.2857143), wk =   0.0029155
        k(  127) = (   0.0714286  -0.7857143   0.6428571), wk =   0.0029155
        k(  128) = (   0.2857143  -0.8571429   0.5714286), wk =   0.0029155
        k(  129) = (   0.5000000  -0.9285714   0.5000000), wk =   0.0029155
        k(  130) = (   0.7142857  -1.0000000   0.4285714), wk =   0.0029155
        k(  131) = (  -0.5714286  -0.5714286   0.8571429), wk =   0.0029155
        k(  132) = (  -0.3571429  -0.6428571   0.7857143), wk =   0.0029155
        k(  133) = (  -0.1428571  -0.7142857   0.7142857), wk =   0.0029155
        k(  134) = (   0.0000000  -0.5714286   0.5714286), wk =   0.0029155
        k(  135) = (   0.2142857  -0.6428571   0.5000000), wk =   0.0029155
        k(  136) = (   0.4285714  -0.7142857   0.4285714), wk =   0.0029155
        k(  137) = (   0.6428571  -0.7857143   0.3571429), wk =   0.0029155
        k(  138) = (  -0.6428571  -0.3571429   0.7857143), wk =   0.0029155
        k(  139) = (  -0.4285714  -0.4285714   0.7142857), wk =   0.0029155
        k(  140) = (  -0.2142857  -0.5000000   0.6428571), wk =   0.0029155
        k(  141) = (  -0.0714286  -0.3571429   0.5000000), wk =   0.0029155
        k(  142) = (   0.1428571  -0.4285714   0.4285714), wk =   0.0029155
        k(  143) = (   0.3571429  -0.5000000   0.3571429), wk =   0.0029155
        k(  144) = (   0.5714286  -0.5714286   0.2857143), wk =   0.0029155
        k(  145) = (  -0.7142857  -0.1428571   0.7142857), wk =   0.0029155
        k(  146) = (  -0.5000000  -0.2142857   0.6428571), wk =   0.0029155
        k(  147) = (  -0.2857143  -0.2857143   0.5714286), wk =   0.0029155
        k(  148) = (  -0.2142857  -0.2142857   0.6428571), wk =   0.0029155
        k(  149) = (   0.0000000  -0.2857143   0.5714286), wk =   0.0029155
        k(  150) = (   0.2142857  -0.3571429   0.5000000), wk =   0.0029155
        k(  151) = (   0.4285714  -0.4285714   0.4285714), wk =   0.0029155
        k(  152) = (  -0.8571429   0.0000000   0.8571429), wk =   0.0029155
        k(  153) = (  -0.6428571  -0.0714286   0.7857143), wk =   0.0029155
        k(  154) = (  -0.4285714  -0.1428571   0.7142857), wk =   0.0029155
        k(  155) = (  -0.2857143   0.0000000   0.5714286), wk =   0.0029155
        k(  156) = (  -0.0714286  -0.0714286   0.5000000), wk =   0.0029155
        k(  157) = (   0.1428571  -0.1428571   0.4285714), wk =   0.0029155
        k(  158) = (   0.3571429  -0.2142857   0.3571429), wk =   0.0029155
        k(  159) = (  -0.9285714   0.2142857   0.7857143), wk =   0.0029155
        k(  160) = (  -0.7142857   0.1428571   0.7142857), wk =   0.0029155
        k(  161) = (  -0.5000000   0.0714286   0.6428571), wk =   0.0029155
        k(  162) = (  -0.3571429   0.2142857   0.5000000), wk =   0.0029155
        k(  163) = (  -0.1428571   0.1428571   0.4285714), wk =   0.0029155
        k(  164) = (   0.0714286   0.0714286   0.3571429), wk =   0.0029155
        k(  165) = (   0.2857143   0.0000000   0.2857143), wk =   0.0029155
        k(  166) = (  -1.0000000   0.4285714   0.7142857), wk =   0.0029155
        k(  167) = (  -0.7857143   0.3571429   0.6428571), wk =   0.0029155
        k(  168) = (  -0.5714286   0.2857143   0.5714286), wk =   0.0029155
        k(  169) = (  -0.4285714   0.4285714   0.4285714), wk =   0.0029155
        k(  170) = (  -0.2142857   0.3571429   0.3571429), wk =   0.0029155
        k(  171) = (   0.0000000   0.2857143   0.2857143), wk =   0.0029155
        k(  172) = (   0.2142857   0.2142857   0.2142857), wk =   0.0029155
        k(  173) = (  -1.0714286   0.6428571   0.6428571), wk =   0.0029155
        k(  174) = (  -0.8571429   0.5714286   0.5714286), wk =   0.0029155
        k(  175) = (  -0.6428571   0.5000000   0.5000000), wk =   0.0029155
        k(  176) = (   0.0000000  -0.8571429   0.8571429), wk =   0.0029155
        k(  177) = (   0.2142857  -0.9285714   0.7857143), wk =   0.0029155
        k(  178) = (   0.4285714  -1.0000000   0.7142857), wk =   0.0029155
        k(  179) = (   0.6428571  -1.0714286   0.6428571), wk =   0.0029155
        k(  180) = (  -0.6428571  -0.6428571   1.0714286), wk =   0.0029155
        k(  181) = (  -0.4285714  -0.7142857   1.0000000), wk =   0.0029155
        k(  182) = (  -0.2142857  -0.7857143   0.9285714), wk =   0.0029155
        k(  183) = (  -0.0714286  -0.6428571   0.7857143), wk =   0.0029155
        k(  184) = (   0.1428571  -0.7142857   0.7142857), wk =   0.0029155
        k(  185) = (   0.3571429  -0.7857143   0.6428571), wk =   0.0029155
        k(  186) = (   0.5714286  -0.8571429   0.5714286), wk =   0.0029155
        k(  187) = (  -0.7142857  -0.4285714   1.0000000), wk =   0.0029155
        k(  188) = (  -0.5000000  -0.5000000   0.9285714), wk =   0.0029155
        k(  189) = (  -0.2857143  -0.5714286   0.8571429), wk =   0.0029155
        k(  190) = (  -0.1428571  -0.4285714   0.7142857), wk =   0.0029155
        k(  191) = (   0.0714286  -0.5000000   0.6428571), wk =   0.0029155
        k(  192) = (   0.2857143  -0.5714286   0.5714286), wk =   0.0029155
        k(  193) = (   0.5000000  -0.6428571   0.5000000), wk =   0.0029155
        k(  194) = (  -0.7857143  -0.2142857   0.9285714), wk =   0.0029155
        k(  195) = (  -0.5714286  -0.2857143   0.8571429), wk =   0.0029155
        k(  196) = (  -0.3571429  -0.3571429   0.7857143), wk =   0.0029155
        k(  197) = (   0.2142857   0.2142857  -0.6428571), wk =   0.0029155
        k(  198) = (   0.4285714   0.1428571  -0.7142857), wk =   0.0029155
        k(  199) = (   0.6428571   0.0714286  -0.7857143), wk =   0.0029155
        k(  200) = (   0.8571429   0.0000000  -0.8571429), wk =   0.0029155
        k(  201) = (  -0.4285714   0.4285714  -0.4285714), wk =   0.0029155
        k(  202) = (  -0.2142857   0.3571429  -0.5000000), wk =   0.0029155
        k(  203) = (  -0.0000000   0.2857143  -0.5714286), wk =   0.0029155
        k(  204) = (   0.1428571   0.4285714  -0.7142857), wk =   0.0029155
        k(  205) = (   0.3571429   0.3571429  -0.7857143), wk =   0.0029155
        k(  206) = (   0.5714286   0.2857143  -0.8571429), wk =   0.0029155
        k(  207) = (   0.7857143   0.2142857  -0.9285714), wk =   0.0029155
        k(  208) = (  -0.5000000   0.6428571  -0.5000000), wk =   0.0029155
        k(  209) = (  -0.2857143   0.5714286  -0.5714286), wk =   0.0029155
        k(  210) = (  -0.0714286   0.5000000  -0.6428571), wk =   0.0029155
        k(  211) = (   0.0714286   0.6428571  -0.7857143), wk =   0.0029155
        k(  212) = (   0.2857143   0.5714286  -0.8571429), wk =   0.0029155
        k(  213) = (   0.5000000   0.5000000  -0.9285714), wk =   0.0029155
        k(  214) = (   0.7142857   0.4285714  -1.0000000), wk =   0.0029155
        k(  215) = (  -0.5714286   0.8571429  -0.5714286), wk =   0.0029155
        k(  216) = (  -0.3571429   0.7857143  -0.6428571), wk =   0.0029155
        k(  217) = (  -0.1428571   0.7142857  -0.7142857), wk =   0.0029155
        k(  218) = (   0.0000000   0.8571429  -0.8571429), wk =   0.0029155
        k(  219) = (   0.2142857   0.7857143  -0.9285714), wk =   0.0029155
        k(  220) = (   0.4285714   0.7142857  -1.0000000), wk =   0.0029155
        k(  221) = (   0.6428571   0.6428571  -1.0714286), wk =   0.0029155
        k(  222) = (  -0.6428571   1.0714286  -0.6428571), wk =   0.0029155
        k(  223) = (  -0.4285714   1.0000000  -0.7142857), wk =   0.0029155
        k(  224) = (  -0.2142857   0.9285714  -0.7857143), wk =   0.0029155
        k(  225) = (   0.4285714  -0.4285714  -0.4285714), wk =   0.0029155
        k(  226) = (   0.6428571  -0.5000000  -0.5000000), wk =   0.0029155
        k(  227) = (   0.8571429  -0.5714286  -0.5714286), wk =   0.0029155
        k(  228) = (   1.0714286  -0.6428571  -0.6428571), wk =   0.0029155
        k(  229) = (  -0.2142857  -0.2142857  -0.2142857), wk =   0.0029155
        k(  230) = (   0.0000000  -0.2857143  -0.2857143), wk =   0.0029155
        k(  231) = (   0.2142857  -0.3571429  -0.3571429), wk =   0.0029155
        k(  232) = (   0.3571429  -0.2142857  -0.5000000), wk =   0.0029155
        k(  233) = (   0.5714286  -0.2857143  -0.5714286), wk =   0.0029155
        k(  234) = (   0.7857143  -0.3571429  -0.6428571), wk =   0.0029155
        k(  235) = (   1.0000000  -0.4285714  -0.7142857), wk =   0.0029155
        k(  236) = (  -0.2857143   0.0000000  -0.2857143), wk =   0.0029155
        k(  237) = (  -0.0714286  -0.0714286  -0.3571429), wk =   0.0029155
        k(  238) = (   0.1428571  -0.1428571  -0.4285714), wk =   0.0029155
        k(  239) = (   0.2857143  -0.0000000  -0.5714286), wk =   0.0029155
        k(  240) = (   0.5000000  -0.0714286  -0.6428571), wk =   0.0029155
        k(  241) = (   0.7142857  -0.1428571  -0.7142857), wk =   0.0029155
        k(  242) = (   0.9285714  -0.2142857  -0.7857143), wk =   0.0029155
        k(  243) = (  -0.3571429   0.2142857  -0.3571429), wk =   0.0029155
        k(  244) = (  -0.1428571   0.1428571  -0.4285714), wk =   0.0029155
        k(  245) = (   0.0714286   0.0714286  -0.5000000), wk =   0.0029155
        k(  246) = (   0.1428571   0.1428571  -0.4285714), wk =   0.0029155
        k(  247) = (   0.3571429   0.0714286  -0.5000000), wk =   0.0029155
        k(  248) = (   0.5714286   0.0000000  -0.5714286), wk =   0.0029155
        k(  249) = (   0.7857143  -0.0714286  -0.6428571), wk =   0.0029155
        k(  250) = (  -0.5000000   0.3571429  -0.2142857), wk =   0.0029155
        k(  251) = (  -0.2857143   0.2857143  -0.2857143), wk =   0.0029155
        k(  252) = (  -0.0714286   0.2142857  -0.3571429), wk =   0.0029155
        k(  253) = (   0.0714286   0.3571429  -0.5000000), wk =   0.0029155
        k(  254) = (   0.2857143   0.2857143  -0.5714286), wk =   0.0029155
        k(  255) = (   0.5000000   0.2142857  -0.6428571), wk =   0.0029155
        k(  256) = (   0.7142857   0.1428571  -0.7142857), wk =   0.0029155
        k(  257) = (  -0.5714286   0.5714286  -0.2857143), wk =   0.0029155
        k(  258) = (  -0.3571429   0.5000000  -0.3571429), wk =   0.0029155
        k(  259) = (  -0.1428571   0.4285714  -0.4285714), wk =   0.0029155
        k(  260) = (   0.0000000   0.5714286  -0.5714286), wk =   0.0029155
        k(  261) = (   0.2142857   0.5000000  -0.6428571), wk =   0.0029155
        k(  262) = (   0.4285714   0.4285714  -0.7142857), wk =   0.0029155
        k(  263) = (   0.6428571   0.3571429  -0.7857143), wk =   0.0029155
        k(  264) = (  -0.6428571   0.7857143  -0.3571429), wk =   0.0029155
        k(  265) = (  -0.4285714   0.7142857  -0.4285714), wk =   0.0029155
        k(  266) = (  -0.2142857   0.6428571  -0.5000000), wk =   0.0029155
        k(  267) = (  -0.0714286   0.7857143  -0.6428571), wk =   0.0029155
        k(  268) = (   0.1428571   0.7142857  -0.7142857), wk =   0.0029155
        k(  269) = (   0.3571429   0.6428571  -0.7857143), wk =   0.0029155
        k(  270) = (   0.5714286   0.5714286  -0.8571429), wk =   0.0029155
        k(  271) = (  -0.7142857   1.0000000  -0.4285714), wk =   0.0029155
        k(  272) = (  -0.5000000   0.9285714  -0.5000000), wk =   0.0029155
        k(  273) = (  -0.2857143   0.8571429  -0.5714286), wk =   0.0029155
        k(  274) = (   0.3571429  -0.5000000  -0.2142857), wk =   0.0029155
        k(  275) = (   0.5714286  -0.5714286  -0.2857143), wk =   0.0029155
        k(  276) = (   0.7857143  -0.6428571  -0.3571429), wk =   0.0029155
        k(  277) = (   1.0000000  -0.7142857  -0.4285714), wk =   0.0029155
        k(  278) = (  -0.2857143  -0.2857143   0.0000000), wk =   0.0029155
        k(  279) = (  -0.0714286  -0.3571429  -0.0714286), wk =   0.0029155
        k(  280) = (   0.1428571  -0.4285714  -0.1428571), wk =   0.0029155
        k(  281) = (   0.2857143  -0.2857143  -0.2857143), wk =   0.0029155
        k(  282) = (   0.5000000  -0.3571429  -0.3571429), wk =   0.0029155
        k(  283) = (   0.7142857  -0.4285714  -0.4285714), wk =   0.0029155
        k(  284) = (   0.9285714  -0.5000000  -0.5000000), wk =   0.0029155
        k(  285) = (  -0.3571429  -0.0714286  -0.0714286), wk =   0.0029155
        k(  286) = (  -0.1428571  -0.1428571  -0.1428571), wk =   0.0029155
        k(  287) = (   0.0714286  -0.2142857  -0.2142857), wk =   0.0029155
        k(  288) = (   0.2142857  -0.0714286  -0.3571429), wk =   0.0029155
        k(  289) = (   0.4285714  -0.1428571  -0.4285714), wk =   0.0029155
        k(  290) = (   0.6428571  -0.2142857  -0.5000000), wk =   0.0029155
        k(  291) = (   0.8571429  -0.2857143  -0.5714286), wk =   0.0029155
        k(  292) = (  -0.4285714   0.1428571  -0.1428571), wk =   0.0029155
        k(  293) = (  -0.2142857   0.0714286  -0.2142857), wk =   0.0029155
        k(  294) = (  -0.0000000  -0.0000000  -0.2857143), wk =   0.0029155
        k(  295) = (   0.0714286   0.0714286  -0.2142857), wk =   0.0029155
        k(  296) = (   0.2857143   0.0000000  -0.2857143), wk =   0.0029155
        k(  297) = (   0.5000000  -0.0714286  -0.3571429), wk =   0.0029155
        k(  298) = (   0.7142857  -0.1428571  -0.4285714), wk =   0.0029155
        k(  299) = (  -0.5714286   0.2857143  -0.0000000), wk =   0.0029155
        k(  300) = (  -0.3571429   0.2142857  -0.0714286), wk =   0.0029155
        k(  301) = (  -0.1428571   0.1428571  -0.1428571), wk =   0.0029155
        k(  302) = (   0.0000000   0.2857143  -0.2857143), wk =   0.0029155
        k(  303) = (   0.2142857   0.2142857  -0.3571429), wk =   0.0029155
        k(  304) = (   0.4285714   0.1428571  -0.4285714), wk =   0.0029155
        k(  305) = (   0.6428571   0.0714286  -0.5000000), wk =   0.0029155
        k(  306) = (  -0.6428571   0.5000000  -0.0714286), wk =   0.0029155
        k(  307) = (  -0.4285714   0.4285714  -0.1428571), wk =   0.0029155
        k(  308) = (  -0.2142857   0.3571429  -0.2142857), wk =   0.0029155
        k(  309) = (  -0.0714286   0.5000000  -0.3571429), wk =   0.0029155
        k(  310) = (   0.1428571   0.4285714  -0.4285714), wk =   0.0029155
        k(  311) = (   0.3571429   0.3571429  -0.5000000), wk =   0.0029155
        k(  312) = (   0.5714286   0.2857143  -0.5714286), wk =   0.0029155
        k(  313) = (  -0.7142857   0.7142857  -0.1428571), wk =   0.0029155
        k(  314) = (  -0.5000000   0.6428571  -0.2142857), wk =   0.0029155
        k(  315) = (  -0.2857143   0.5714286  -0.2857143), wk =   0.0029155
        k(  316) = (  -0.1428571   0.7142857  -0.4285714), wk =   0.0029155
        k(  317) = (   0.0714286   0.6428571  -0.5000000), wk =   0.0029155
        k(  318) = (   0.2857143   0.5714286  -0.5714286), wk =   0.0029155
        k(  319) = (   0.5000000   0.5000000  -0.6428571), wk =   0.0029155
        k(  320) = (  -0.7857143   0.9285714  -0.2142857), wk =   0.0029155
        k(  321) = (  -0.5714286   0.8571429  -0.2857143), wk =   0.0029155
        k(  322) = (  -0.3571429   0.7857143  -0.3571429), wk =   0.0029155
        k(  323) = (   0.2857143  -0.5714286  -0.0000000), wk =   0.0029155
        k(  324) = (   0.5000000  -0.6428571  -0.0714286), wk =   0.0029155
        k(  325) = (   0.7142857  -0.7142857  -0.1428571), wk =   0.0029155
        k(  326) = (   0.9285714  -0.7857143  -0.2142857), wk =   0.0029155
        k(  327) = (  -0.3571429  -0.3571429   0.2142857), wk =   0.0029155
        k(  328) = (  -0.1428571  -0.4285714   0.1428571), wk =   0.0029155
        k(  329) = (   0.0714286  -0.5000000   0.0714286), wk =   0.0029155
        k(  330) = (   0.2142857  -0.3571429  -0.0714286), wk =   0.0029155
        k(  331) = (   0.4285714  -0.4285714  -0.1428571), wk =   0.0029155
        k(  332) = (   0.6428571  -0.5000000  -0.2142857), wk =   0.0029155
        k(  333) = (   0.8571429  -0.5714286  -0.2857143), wk =   0.0029155
        k(  334) = (  -0.4285714  -0.1428571   0.1428571), wk =   0.0029155
        k(  335) = (  -0.2142857  -0.2142857   0.0714286), wk =   0.0029155
        k(  336) = (  -0.0000000  -0.2857143  -0.0000000), wk =   0.0029155
        k(  337) = (   0.1428571  -0.1428571  -0.1428571), wk =   0.0029155
        k(  338) = (   0.3571429  -0.2142857  -0.2142857), wk =   0.0029155
        k(  339) = (   0.5714286  -0.2857143  -0.2857143), wk =   0.0029155
        k(  340) = (   0.7857143  -0.3571429  -0.3571429), wk =   0.0029155
        k(  341) = (  -0.5000000   0.0714286   0.0714286), wk =   0.0029155
        k(  342) = (  -0.2857143  -0.0000000  -0.0000000), wk =   0.0029155
        k(  343) = (  -0.0714286  -0.0714286  -0.0714286), wk =   0.0029155

                       cryst. coord.
        k(    1) = (   0.0000000   0.0000000   0.0000000), wk =   0.0029155
        k(    2) = (   0.0000000   0.0000000   0.1428571), wk =   0.0029155
        k(    3) = (   0.0000000   0.0000000   0.2857143), wk =   0.0029155
        k(    4) = (  -0.0000000  -0.0000000   0.4285714), wk =   0.0029155
        k(    5) = (   0.0000000   0.0000000  -0.4285714), wk =   0.0029155
        k(    6) = (   0.0000000   0.0000000  -0.2857143), wk =   0.0029155
        k(    7) = (   0.0000000   0.0000000  -0.1428571), wk =   0.0029155
        k(    8) = (   0.0000000   0.1428571   0.0000000), wk =   0.0029155
        k(    9) = (   0.0000000   0.1428571   0.1428571), wk =   0.0029155
        k(   10) = (  -0.0000000   0.1428571   0.2857143), wk =   0.0029155
        k(   11) = (   0.0000000   0.1428571   0.4285714), wk =   0.0029155
        k(   12) = (   0.0000000   0.1428571  -0.4285714), wk =   0.0029155
        k(   13) = (  -0.0000000   0.1428571  -0.2857143), wk =   0.0029155
        k(   14) = (  -0.0000000   0.1428571  -0.1428571), wk =   0.0029155
        k(   15) = (   0.0000000   0.2857143   0.0000000), wk =   0.0029155
        k(   16) = (  -0.0000000   0.2857143   0.1428571), wk =   0.0029155
        k(   17) = (   0.0000000   0.2857143   0.2857143), wk =   0.0029155
        k(   18) = (   0.0000000   0.2857143   0.4285714), wk =   0.0029155
        k(   19) = (  -0.0000000   0.2857143  -0.4285714), wk =   0.0029155
        k(   20) = (   0.0000000   0.2857143  -0.2857143), wk =   0.0029155
        k(   21) = (   0.0000000   0.2857143  -0.1428571), wk =   0.0029155
        k(   22) = (  -0.0000000   0.4285714  -0.0000000), wk =   0.0029155
        k(   23) = (   0.0000000   0.4285714   0.1428571), wk =   0.0029155
        k(   24) = (   0.0000000   0.4285714   0.2857143), wk =   0.0029155
        k(   25) = (  -0.0000000   0.4285714   0.4285714), wk =   0.0029155
        k(   26) = (  -0.0000000   0.4285714  -0.4285714), wk =   0.0029155
        k(   27) = (  -0.0000000   0.4285714  -0.2857143), wk =   0.0029155
        k(   28) = (  -0.0000000   0.4285714  -0.1428571), wk =   0.0029155
        k(   29) = (   0.0000000  -0.4285714   0.0000000), wk =   0.0029155
        k(   30) = (   0.0000000  -0.4285714   0.1428571), wk =   0.0029155
        k(   31) = (  -0.0000000  -0.4285714   0.2857143), wk =   0.0029155
        k(   32) = (  -0.0000000  -0.4285714   0.4285714), wk =   0.0029155
        k(   33) = (   0.0000000  -0.4285714  -0.4285714), wk =   0.0029155
        k(   34) = (   0.0000000  -0.4285714  -0.2857143), wk =   0.0029155
        k(   35) = (   0.0000000  -0.4285714  -0.1428571), wk =   0.0029155
        k(   36) = (   0.0000000  -0.2857143   0.0000000), wk =   0.0029155
        k(   37) = (  -0.0000000  -0.2857143   0.1428571), wk =   0.0029155
        k(   38) = (   0.0000000  -0.2857143   0.2857143), wk =   0.0029155
        k(   39) = (  -0.0000000  -0.2857143   0.4285714), wk =   0.0029155
        k(   40) = (   0.0000000  -0.2857143  -0.4285714), wk =   0.0029155
        k(   41) = (   0.0000000  -0.2857143  -0.2857143), wk =   0.0029155
        k(   42) = (   0.0000000  -0.2857143  -0.1428571), wk =   0.0029155
        k(   43) = (   0.0000000  -0.1428571   0.0000000), wk =   0.0029155
        k(   44) = (  -0.0000000  -0.1428571   0.1428571), wk =   0.0029155
        k(   45) = (   0.0000000  -0.1428571   0.2857143), wk =   0.0029155
        k(   46) = (  -0.0000000  -0.1428571   0.4285714), wk =   0.0029155
        k(   47) = (   0.0000000  -0.1428571  -0.4285714), wk =   0.0029155
        k(   48) = (   0.0000000  -0.1428571  -0.2857143), wk =   0.0029155
        k(   49) = (   0.0000000  -0.1428571  -0.1428571), wk =   0.0029155
        k(   50) = (   0.1428571   0.0000000   0.0000000), wk =   0.0029155
        k(   51) = (   0.1428571   0.0000000   0.1428571), wk =   0.0029155
        k(   52) = (   0.1428571  -0.0000000   0.2857143), wk =   0.0029155
        k(   53) = (   0.1428571   0.0000000   0.4285714), wk =   0.0029155
        k(   54) = (   0.1428571   0.0000000  -0.4285714), wk =   0.0029155
        k(   55) = (   0.1428571  -0.0000000  -0.2857143), wk =   0.0029155
        k(   56) = (   0.1428571  -0.0000000  -0.1428571), wk =   0.0029155
        k(   57) = (   0.1428571   0.1428571   0.0000000), wk =   0.0029155
        k(   58) = (   0.1428571   0.1428571   0.1428571), wk =   0.0029155
        k(   59) = (   0.1428571   0.1428571   0.2857143), wk =   0.0029155
        k(   60) = (   0.1428571   0.1428571   0.4285714), wk =   0.0029155
        k(   61) = (   0.1428571   0.1428571  -0.4285714), wk =   0.0029155
        k(   62) = (   0.1428571   0.1428571  -0.2857143), wk =   0.0029155
        k(   63) = (   0.1428571   0.1428571  -0.1428571), wk =   0.0029155
        k(   64) = (   0.1428571   0.2857143  -0.0000000), wk =   0.0029155
        k(   65) = (   0.1428571   0.2857143   0.1428571), wk =   0.0029155
        k(   66) = (   0.1428571   0.2857143   0.2857143), wk =   0.0029155
        k(   67) = (   0.1428571   0.2857143   0.4285714), wk =   0.0029155
        k(   68) = (   0.1428571   0.2857143  -0.4285714), wk =   0.0029155
        k(   69) = (   0.1428571   0.2857143  -0.2857143), wk =   0.0029155
        k(   70) = (   0.1428571   0.2857143  -0.1428571), wk =   0.0029155
        k(   71) = (   0.1428571   0.4285714   0.0000000), wk =   0.0029155
        k(   72) = (   0.1428571   0.4285714   0.1428571), wk =   0.0029155
        k(   73) = (   0.1428571   0.4285714   0.2857143), wk =   0.0029155
        k(   74) = (   0.1428571   0.4285714   0.4285714), wk =   0.0029155
        k(   75) = (   0.1428571   0.4285714  -0.4285714), wk =   0.0029155
        k(   76) = (   0.1428571   0.4285714  -0.2857143), wk =   0.0029155
        k(   77) = (   0.1428571   0.4285714  -0.1428571), wk =   0.0029155
        k(   78) = (   0.1428571  -0.4285714   0.0000000), wk =   0.0029155
        k(   79) = (   0.1428571  -0.4285714   0.1428571), wk =   0.0029155
        k(   80) = (   0.1428571  -0.4285714   0.2857143), wk =   0.0029155
        k(   81) = (   0.1428571  -0.4285714   0.4285714), wk =   0.0029155
        k(   82) = (   0.1428571  -0.4285714  -0.4285714), wk =   0.0029155
        k(   83) = (   0.1428571  -0.4285714  -0.2857143), wk =   0.0029155
        k(   84) = (   0.1428571  -0.4285714  -0.1428571), wk =   0.0029155
        k(   85) = (   0.1428571  -0.2857143  -0.0000000), wk =   0.0029155
        k(   86) = (   0.1428571  -0.2857143   0.1428571), wk =   0.0029155
        k(   87) = (   0.1428571  -0.2857143   0.2857143), wk =   0.0029155
        k(   88) = (   0.1428571  -0.2857143   0.4285714), wk =   0.0029155
        k(   89) = (   0.1428571  -0.2857143  -0.4285714), wk =   0.0029155
        k(   90) = (   0.1428571  -0.2857143  -0.2857143), wk =   0.0029155
        k(   91) = (   0.1428571  -0.2857143  -0.1428571), wk =   0.0029155
        k(   92) = (   0.1428571  -0.1428571  -0.0000000), wk =   0.0029155
        k(   93) = (   0.1428571  -0.1428571   0.1428571), wk =   0.0029155
        k(   94) = (   0.1428571  -0.1428571   0.2857143), wk =   0.0029155
        k(   95) = (   0.1428571  -0.1428571   0.4285714), wk =   0.0029155
        k(   96) = (   0.1428571  -0.1428571  -0.4285714), wk =   0.0029155
        k(   97) = (   0.1428571  -0.1428571  -0.2857143), wk =   0.0029155
        k(   98) = (   0.1428571  -0.1428571  -0.1428571), wk =   0.0029155
        k(   99) = (   0.2857143   0.0000000   0.0000000), wk =   0.0029155
        k(  100) = (   0.2857143   0.0000000   0.1428571), wk =   0.0029155
        k(  101) = (   0.2857143   0.0000000   0.2857143), wk =   0.0029155
        k(  102) = (   0.2857143   0.0000000   0.4285714), wk =   0.0029155
        k(  103) = (   0.2857143  -0.0000000  -0.4285714), wk =   0.0029155
        k(  104) = (   0.2857143   0.0000000  -0.2857143), wk =   0.0029155
        k(  105) = (   0.2857143   0.0000000  -0.1428571), wk =   0.0029155
        k(  106) = (   0.2857143   0.1428571   0.0000000), wk =   0.0029155
        k(  107) = (   0.2857143   0.1428571   0.1428571), wk =   0.0029155
        k(  108) = (   0.2857143   0.1428571   0.2857143), wk =   0.0029155
        k(  109) = (   0.2857143   0.1428571   0.4285714), wk =   0.0029155
        k(  110) = (   0.2857143   0.1428571  -0.4285714), wk =   0.0029155
        k(  111) = (   0.2857143   0.1428571  -0.2857143), wk =   0.0029155
        k(  112) = (   0.2857143   0.1428571  -0.1428571), wk =   0.0029155
        k(  113) = (   0.2857143   0.2857143   0.0000000), wk =   0.0029155
        k(  114) = (   0.2857143   0.2857143   0.1428571), wk =   0.0029155
        k(  115) = (   0.2857143   0.2857143   0.2857143), wk =   0.0029155
        k(  116) = (   0.2857143   0.2857143   0.4285714), wk =   0.0029155
        k(  117) = (   0.2857143   0.2857143  -0.4285714), wk =   0.0029155
        k(  118) = (   0.2857143   0.2857143  -0.2857143), wk =   0.0029155
        k(  119) = (   0.2857143   0.2857143  -0.1428571), wk =   0.0029155
        k(  120) = (   0.2857143   0.4285714   0.0000000), wk =   0.0029155
        k(  121) = (   0.2857143   0.4285714   0.1428571), wk =   0.0029155
        k(  122) = (   0.2857143   0.4285714   0.2857143), wk =   0.0029155
        k(  123) = (   0.2857143   0.4285714   0.4285714), wk =   0.0029155
        k(  124) = (   0.2857143   0.4285714  -0.4285714), wk =   0.0029155
        k(  125) = (   0.2857143   0.4285714  -0.2857143), wk =   0.0029155
        k(  126) = (   0.2857143   0.4285714  -0.1428571), wk =   0.0029155
        k(  127) = (   0.2857143  -0.4285714  -0.0000000), wk =   0.0029155
        k(  128) = (   0.2857143  -0.4285714   0.1428571), wk =   0.0029155
        k(  129) = (   0.2857143  -0.4285714   0.2857143), wk =   0.0029155
        k(  130) = (   0.2857143  -0.4285714   0.4285714), wk =   0.0029155
        k(  131) = (   0.2857143  -0.4285714  -0.4285714), wk =   0.0029155
        k(  132) = (   0.2857143  -0.4285714  -0.2857143), wk =   0.0029155
        k(  133) = (   0.2857143  -0.4285714  -0.1428571), wk =   0.0029155
        k(  134) = (   0.2857143  -0.2857143   0.0000000), wk =   0.0029155
        k(  135) = (   0.2857143  -0.2857143   0.1428571), wk =   0.0029155
        k(  136) = (   0.2857143  -0.2857143   0.2857143), wk =   0.0029155
        k(  137) = (   0.2857143  -0.2857143   0.4285714), wk =   0.0029155
        k(  138) = (   0.2857143  -0.2857143  -0.4285714), wk =   0.0029155
        k(  139) = (   0.2857143  -0.2857143  -0.2857143), wk =   0.0029155
        k(  140) = (   0.2857143  -0.2857143  -0.1428571), wk =   0.0029155
        k(  141) = (   0.2857143  -0.1428571   0.0000000), wk =   0.0029155
        k(  142) = (   0.2857143  -0.1428571   0.1428571), wk =   0.0029155
        k(  143) = (   0.2857143  -0.1428571   0.2857143), wk =   0.0029155
        k(  144) = (   0.2857143  -0.1428571   0.4285714), wk =   0.0029155
        k(  145) = (   0.2857143  -0.1428571  -0.4285714), wk =   0.0029155
        k(  146) = (   0.2857143  -0.1428571  -0.2857143), wk =   0.0029155
        k(  147) = (   0.2857143  -0.1428571  -0.1428571), wk =   0.0029155
        k(  148) = (   0.4285714   0.0000000   0.0000000), wk =   0.0029155
        k(  149) = (   0.4285714   0.0000000   0.1428571), wk =   0.0029155
        k(  150) = (   0.4285714   0.0000000   0.2857143), wk =   0.0029155
        k(  151) = (   0.4285714  -0.0000000   0.4285714), wk =   0.0029155
        k(  152) = (   0.4285714  -0.0000000  -0.4285714), wk =   0.0029155
        k(  153) = (   0.4285714   0.0000000  -0.2857143), wk =   0.0029155
        k(  154) = (   0.4285714   0.0000000  -0.1428571), wk =   0.0029155
        k(  155) = (   0.4285714   0.1428571   0.0000000), wk =   0.0029155
        k(  156) = (   0.4285714   0.1428571   0.1428571), wk =   0.0029155
        k(  157) = (   0.4285714   0.1428571   0.2857143), wk =   0.0029155
        k(  158) = (   0.4285714   0.1428571   0.4285714), wk =   0.0029155
        k(  159) = (   0.4285714   0.1428571  -0.4285714), wk =   0.0029155
        k(  160) = (   0.4285714   0.1428571  -0.2857143), wk =   0.0029155
        k(  161) = (   0.4285714   0.1428571  -0.1428571), wk =   0.0029155
        k(  162) = (   0.4285714   0.2857143   0.0000000), wk =   0.0029155
        k(  163) = (   0.4285714   0.2857143   0.1428571), wk =   0.0029155
        k(  164) = (   0.4285714   0.2857143   0.2857143), wk =   0.0029155
        k(  165) = (   0.4285714   0.2857143   0.4285714), wk =   0.0029155
        k(  166) = (   0.4285714   0.2857143  -0.4285714), wk =   0.0029155
        k(  167) = (   0.4285714   0.2857143  -0.2857143), wk =   0.0029155
        k(  168) = (   0.4285714   0.2857143  -0.1428571), wk =   0.0029155
        k(  169) = (   0.4285714   0.4285714  -0.0000000), wk =   0.0029155
        k(  170) = (   0.4285714   0.4285714   0.1428571), wk =   0.0029155
        k(  171) = (   0.4285714   0.4285714   0.2857143), wk =   0.0029155
        k(  172) = (   0.4285714   0.4285714   0.4285714), wk =   0.0029155
        k(  173) = (   0.4285714   0.4285714  -0.4285714), wk =   0.0029155
        k(  174) = (   0.4285714   0.4285714  -0.2857143), wk =   0.0029155
        k(  175) = (   0.4285714   0.4285714  -0.1428571), wk =   0.0029155
        k(  176) = (   0.4285714  -0.4285714  -0.0000000), wk =   0.0029155
        k(  177) = (   0.4285714  -0.4285714   0.1428571), wk =   0.0029155
        k(  178) = (   0.4285714  -0.4285714   0.2857143), wk =   0.0029155
        k(  179) = (   0.4285714  -0.4285714   0.4285714), wk =   0.0029155
        k(  180) = (   0.4285714  -0.4285714  -0.4285714), wk =   0.0029155
        k(  181) = (   0.4285714  -0.4285714  -0.2857143), wk =   0.0029155
        k(  182) = (   0.4285714  -0.4285714  -0.1428571), wk =   0.0029155
        k(  183) = (   0.4285714  -0.2857143   0.0000000), wk =   0.0029155
        k(  184) = (   0.4285714  -0.2857143   0.1428571), wk =   0.0029155
        k(  185) = (   0.4285714  -0.2857143   0.2857143), wk =   0.0029155
        k(  186) = (   0.4285714  -0.2857143   0.4285714), wk =   0.0029155
        k(  187) = (   0.4285714  -0.2857143  -0.4285714), wk =   0.0029155
        k(  188) = (   0.4285714  -0.2857143  -0.2857143), wk =   0.0029155
        k(  189) = (   0.4285714  -0.2857143  -0.1428571), wk =   0.0029155
        k(  190) = (   0.4285714  -0.1428571   0.0000000), wk =   0.0029155
        k(  191) = (   0.4285714  -0.1428571   0.1428571), wk =   0.0029155
        k(  192) = (   0.4285714  -0.1428571   0.2857143), wk =   0.0029155
        k(  193) = (   0.4285714  -0.1428571   0.4285714), wk =   0.0029155
        k(  194) = (   0.4285714  -0.1428571  -0.4285714), wk =   0.0029155
        k(  195) = (   0.4285714  -0.1428571  -0.2857143), wk =   0.0029155
        k(  196) = (   0.4285714  -0.1428571  -0.1428571), wk =   0.0029155
        k(  197) = (  -0.4285714   0.0000000   0.0000000), wk =   0.0029155
        k(  198) = (  -0.4285714   0.0000000   0.1428571), wk =   0.0029155
        k(  199) = (  -0.4285714  -0.0000000   0.2857143), wk =   0.0029155
        k(  200) = (  -0.4285714   0.0000000   0.4285714), wk =   0.0029155
        k(  201) = (  -0.4285714   0.0000000  -0.4285714), wk =   0.0029155
        k(  202) = (  -0.4285714   0.0000000  -0.2857143), wk =   0.0029155
        k(  203) = (  -0.4285714   0.0000000  -0.1428571), wk =   0.0029155
        k(  204) = (  -0.4285714   0.1428571   0.0000000), wk =   0.0029155
        k(  205) = (  -0.4285714   0.1428571   0.1428571), wk =   0.0029155
        k(  206) = (  -0.4285714   0.1428571   0.2857143), wk =   0.0029155
        k(  207) = (  -0.4285714   0.1428571   0.4285714), wk =   0.0029155
        k(  208) = (  -0.4285714   0.1428571  -0.4285714), wk =   0.0029155
        k(  209) = (  -0.4285714   0.1428571  -0.2857143), wk =   0.0029155
        k(  210) = (  -0.4285714   0.1428571  -0.1428571), wk =   0.0029155
        k(  211) = (  -0.4285714   0.2857143  -0.0000000), wk =   0.0029155
        k(  212) = (  -0.4285714   0.2857143   0.1428571), wk =   0.0029155
        k(  213) = (  -0.4285714   0.2857143   0.2857143), wk =   0.0029155
        k(  214) = (  -0.4285714   0.2857143   0.4285714), wk =   0.0029155
        k(  215) = (  -0.4285714   0.2857143  -0.4285714), wk =   0.0029155
        k(  216) = (  -0.4285714   0.2857143  -0.2857143), wk =   0.0029155
        k(  217) = (  -0.4285714   0.2857143  -0.1428571), wk =   0.0029155
        k(  218) = (  -0.4285714   0.4285714   0.0000000), wk =   0.0029155
        k(  219) = (  -0.4285714   0.4285714   0.1428571), wk =   0.0029155
        k(  220) = (  -0.4285714   0.4285714   0.2857143), wk =   0.0029155
        k(  221) = (  -0.4285714   0.4285714   0.4285714), wk =   0.0029155
        k(  222) = (  -0.4285714   0.4285714  -0.4285714), wk =   0.0029155
        k(  223) = (  -0.4285714   0.4285714  -0.2857143), wk =   0.0029155
        k(  224) = (  -0.4285714   0.4285714  -0.1428571), wk =   0.0029155
        k(  225) = (  -0.4285714  -0.4285714   0.0000000), wk =   0.0029155
        k(  226) = (  -0.4285714  -0.4285714   0.1428571), wk =   0.0029155
        k(  227) = (  -0.4285714  -0.4285714   0.2857143), wk =   0.0029155
        k(  228) = (  -0.4285714  -0.4285714   0.4285714), wk =   0.0029155
        k(  229) = (  -0.4285714  -0.4285714  -0.4285714), wk =   0.0029155
        k(  230) = (  -0.4285714  -0.4285714  -0.2857143), wk =   0.0029155
        k(  231) = (  -0.4285714  -0.4285714  -0.1428571), wk =   0.0029155
        k(  232) = (  -0.4285714  -0.2857143   0.0000000), wk =   0.0029155
        k(  233) = (  -0.4285714  -0.2857143   0.1428571), wk =   0.0029155
        k(  234) = (  -0.4285714  -0.2857143   0.2857143), wk =   0.0029155
        k(  235) = (  -0.4285714  -0.2857143   0.4285714), wk =   0.0029155
        k(  236) = (  -0.4285714  -0.2857143  -0.4285714), wk =   0.0029155
        k(  237) = (  -0.4285714  -0.2857143  -0.2857143), wk =   0.0029155
        k(  238) = (  -0.4285714  -0.2857143  -0.1428571), wk =   0.0029155
        k(  239) = (  -0.4285714  -0.1428571   0.0000000), wk =   0.0029155
        k(  240) = (  -0.4285714  -0.1428571   0.1428571), wk =   0.0029155
        k(  241) = (  -0.4285714  -0.1428571   0.2857143), wk =   0.0029155
        k(  242) = (  -0.4285714  -0.1428571   0.4285714), wk =   0.0029155
        k(  243) = (  -0.4285714  -0.1428571  -0.4285714), wk =   0.0029155
        k(  244) = (  -0.4285714  -0.1428571  -0.2857143), wk =   0.0029155
        k(  245) = (  -0.4285714  -0.1428571  -0.1428571), wk =   0.0029155
        k(  246) = (  -0.2857143   0.0000000   0.0000000), wk =   0.0029155
        k(  247) = (  -0.2857143  -0.0000000   0.1428571), wk =   0.0029155
        k(  248) = (  -0.2857143   0.0000000   0.2857143), wk =   0.0029155
        k(  249) = (  -0.2857143   0.0000000   0.4285714), wk =   0.0029155
        k(  250) = (  -0.2857143   0.0000000  -0.4285714), wk =   0.0029155
        k(  251) = (  -0.2857143   0.0000000  -0.2857143), wk =   0.0029155
        k(  252) = (  -0.2857143   0.0000000  -0.1428571), wk =   0.0029155
        k(  253) = (  -0.2857143   0.1428571  -0.0000000), wk =   0.0029155
        k(  254) = (  -0.2857143   0.1428571   0.1428571), wk =   0.0029155
        k(  255) = (  -0.2857143   0.1428571   0.2857143), wk =   0.0029155
        k(  256) = (  -0.2857143   0.1428571   0.4285714), wk =   0.0029155
        k(  257) = (  -0.2857143   0.1428571  -0.4285714), wk =   0.0029155
        k(  258) = (  -0.2857143   0.1428571  -0.2857143), wk =   0.0029155
        k(  259) = (  -0.2857143   0.1428571  -0.1428571), wk =   0.0029155
        k(  260) = (  -0.2857143   0.2857143   0.0000000), wk =   0.0029155
        k(  261) = (  -0.2857143   0.2857143   0.1428571), wk =   0.0029155
        k(  262) = (  -0.2857143   0.2857143   0.2857143), wk =   0.0029155
        k(  263) = (  -0.2857143   0.2857143   0.4285714), wk =   0.0029155
        k(  264) = (  -0.2857143   0.2857143  -0.4285714), wk =   0.0029155
        k(  265) = (  -0.2857143   0.2857143  -0.2857143), wk =   0.0029155
        k(  266) = (  -0.2857143   0.2857143  -0.1428571), wk =   0.0029155
        k(  267) = (  -0.2857143   0.4285714   0.0000000), wk =   0.0029155
        k(  268) = (  -0.2857143   0.4285714   0.1428571), wk =   0.0029155
        k(  269) = (  -0.2857143   0.4285714   0.2857143), wk =   0.0029155
        k(  270) = (  -0.2857143   0.4285714   0.4285714), wk =   0.0029155
        k(  271) = (  -0.2857143   0.4285714  -0.4285714), wk =   0.0029155
        k(  272) = (  -0.2857143   0.4285714  -0.2857143), wk =   0.0029155
        k(  273) = (  -0.2857143   0.4285714  -0.1428571), wk =   0.0029155
        k(  274) = (  -0.2857143  -0.4285714   0.0000000), wk =   0.0029155
        k(  275) = (  -0.2857143  -0.4285714   0.1428571), wk =   0.0029155
        k(  276) = (  -0.2857143  -0.4285714   0.2857143), wk =   0.0029155
        k(  277) = (  -0.2857143  -0.4285714   0.4285714), wk =   0.0029155
        k(  278) = (  -0.2857143  -0.4285714  -0.4285714), wk =   0.0029155
        k(  279) = (  -0.2857143  -0.4285714  -0.2857143), wk =   0.0029155
        k(  280) = (  -0.2857143  -0.4285714  -0.1428571), wk =   0.0029155
        k(  281) = (  -0.2857143  -0.2857143   0.0000000), wk =   0.0029155
        k(  282) = (  -0.2857143  -0.2857143   0.1428571), wk =   0.0029155
        k(  283) = (  -0.2857143  -0.2857143   0.2857143), wk =   0.0029155
        k(  284) = (  -0.2857143  -0.2857143   0.4285714), wk =   0.0029155
        k(  285) = (  -0.2857143  -0.2857143  -0.4285714), wk =   0.0029155
        k(  286) = (  -0.2857143  -0.2857143  -0.2857143), wk =   0.0029155
        k(  287) = (  -0.2857143  -0.2857143  -0.1428571), wk =   0.0029155
        k(  288) = (  -0.2857143  -0.1428571   0.0000000), wk =   0.0029155
        k(  289) = (  -0.2857143  -0.1428571   0.1428571), wk =   0.0029155
        k(  290) = (  -0.2857143  -0.1428571   0.2857143), wk =   0.0029155
        k(  291) = (  -0.2857143  -0.1428571   0.4285714), wk =   0.0029155
        k(  292) = (  -0.2857143  -0.1428571  -0.4285714), wk =   0.0029155
        k(  293) = (  -0.2857143  -0.1428571  -0.2857143), wk =   0.0029155
        k(  294) = (  -0.2857143  -0.1428571  -0.1428571), wk =   0.0029155
        k(  295) = (  -0.1428571   0.0000000   0.0000000), wk =   0.0029155
        k(  296) = (  -0.1428571  -0.0000000   0.1428571), wk =   0.0029155
        k(  297) = (  -0.1428571   0.0000000   0.2857143), wk =   0.0029155
        k(  298) = (  -0.1428571  -0.0000000   0.4285714), wk =   0.0029155
        k(  299) = (  -0.1428571   0.0000000  -0.4285714), wk =   0.0029155
        k(  300) = (  -0.1428571   0.0000000  -0.2857143), wk =   0.0029155
        k(  301) = (  -0.1428571   0.0000000  -0.1428571), wk =   0.0029155
        k(  302) = (  -0.1428571   0.1428571  -0.0000000), wk =   0.0029155
        k(  303) = (  -0.1428571   0.1428571   0.1428571), wk =   0.0029155
        k(  304) = (  -0.1428571   0.1428571   0.2857143), wk =   0.0029155
        k(  305) = (  -0.1428571   0.1428571   0.4285714), wk =   0.0029155
        k(  306) = (  -0.1428571   0.1428571  -0.4285714), wk =   0.0029155
        k(  307) = (  -0.1428571   0.1428571  -0.2857143), wk =   0.0029155
        k(  308) = (  -0.1428571   0.1428571  -0.1428571), wk =   0.0029155
        k(  309) = (  -0.1428571   0.2857143   0.0000000), wk =   0.0029155
        k(  310) = (  -0.1428571   0.2857143   0.1428571), wk =   0.0029155
        k(  311) = (  -0.1428571   0.2857143   0.2857143), wk =   0.0029155
        k(  312) = (  -0.1428571   0.2857143   0.4285714), wk =   0.0029155
        k(  313) = (  -0.1428571   0.2857143  -0.4285714), wk =   0.0029155
        k(  314) = (  -0.1428571   0.2857143  -0.2857143), wk =   0.0029155
        k(  315) = (  -0.1428571   0.2857143  -0.1428571), wk =   0.0029155
        k(  316) = (  -0.1428571   0.4285714  -0.0000000), wk =   0.0029155
        k(  317) = (  -0.1428571   0.4285714   0.1428571), wk =   0.0029155
        k(  318) = (  -0.1428571   0.4285714   0.2857143), wk =   0.0029155
        k(  319) = (  -0.1428571   0.4285714   0.4285714), wk =   0.0029155
        k(  320) = (  -0.1428571   0.4285714  -0.4285714), wk =   0.0029155
        k(  321) = (  -0.1428571   0.4285714  -0.2857143), wk =   0.0029155
        k(  322) = (  -0.1428571   0.4285714  -0.1428571), wk =   0.0029155
        k(  323) = (  -0.1428571  -0.4285714   0.0000000), wk =   0.0029155
        k(  324) = (  -0.1428571  -0.4285714   0.1428571), wk =   0.0029155
        k(  325) = (  -0.1428571  -0.4285714   0.2857143), wk =   0.0029155
        k(  326) = (  -0.1428571  -0.4285714   0.4285714), wk =   0.0029155
        k(  327) = (  -0.1428571  -0.4285714  -0.4285714), wk =   0.0029155
        k(  328) = (  -0.1428571  -0.4285714  -0.2857143), wk =   0.0029155
        k(  329) = (  -0.1428571  -0.4285714  -0.1428571), wk =   0.0029155
        k(  330) = (  -0.1428571  -0.2857143   0.0000000), wk =   0.0029155
        k(  331) = (  -0.1428571  -0.2857143   0.1428571), wk =   0.0029155
        k(  332) = (  -0.1428571  -0.2857143   0.2857143), wk =   0.0029155
        k(  333) = (  -0.1428571  -0.2857143   0.4285714), wk =   0.0029155
        k(  334) = (  -0.1428571  -0.2857143  -0.4285714), wk =   0.0029155
        k(  335) = (  -0.1428571  -0.2857143  -0.2857143), wk =   0.0029155
        k(  336) = (  -0.1428571  -0.2857143  -0.1428571), wk =   0.0029155
        k(  337) = (  -0.1428571  -0.1428571   0.0000000), wk =   0.0029155
        k(  338) = (  -0.1428571  -0.1428571   0.1428571), wk =   0.0029155
        k(  339) = (  -0.1428571  -0.1428571   0.2857143), wk =   0.0029155
        k(  340) = (  -0.1428571  -0.1428571   0.4285714), wk =   0.0029155
        k(  341) = (  -0.1428571  -0.1428571  -0.4285714), wk =   0.0029155
        k(  342) = (  -0.1428571  -0.1428571  -0.2857143), wk =   0.0029155
        k(  343) = (  -0.1428571  -0.1428571  -0.1428571), wk =   0.0029155

     Dense  grid:    17255 G-vectors     FFT dimensions: (  50,  50,  50)

     Smooth grid:     6111 G-vectors     FFT dimensions: (  36,  36,  36)

     Dynamical RAM for                 wfc:       0.35 MB

     Dynamical RAM for     wfc (w. buffer):     239.64 MB

     Dynamical RAM for           str. fact:       0.79 MB

     Dynamical RAM for           local pot:       0.00 MB

     Dynamical RAM for          nlocal pot:       0.72 MB

     Dynamical RAM for                qrad:       3.73 MB

     Dynamical RAM for          rho,v,vnew:       7.30 MB

     Dynamical RAM for               rhoin:       2.43 MB

     Dynamical RAM for            rho*nmix:       8.43 MB

     Dynamical RAM for           G-vectors:       1.03 MB

     Dynamical RAM for          h,s,v(r/c):       0.16 MB

     Dynamical RAM for          <psi|beta>:       0.03 MB

     Dynamical RAM for                 psi:       0.70 MB

     Dynamical RAM for                hpsi:       0.70 MB

     Dynamical RAM for      wfcinit/wfcrot:       0.72 MB

     Estimated static dynamical RAM per process >     262.42 MB

     Estimated max dynamical RAM per process >     272.44 MB

     Check: negative core charge=   -0.000037
     Generating pointlists ...
     new r_m :   0.2063 (alat units)  1.6892 (a.u.) for type    1
     new r_m :   0.2063 (alat units)  1.6892 (a.u.) for type    2
     new r_m :   0.2063 (alat units)  1.6892 (a.u.) for type    3

     Initial potential from superposition of free atoms

     starting charge      43.9994, renormalised to      44.0000
     Starting wfcs are   28 randomized atomic wfcs +    2 random wfcs

     total cpu time spent up to now is       11.3 secs

     Self-consistent Calculation

     iteration #  1     ecut=    30.00 Ry     beta= 0.40
     Davidson diagonalization with overlap

---- Real-time Memory Report at c_bands before calling an iterative solver
           296 MiB given to the printing process from OS
             0 MiB allocation reported by mallinfo(arena+hblkhd)
          6100 MiB available memory on the node where the printing process lives
------------------
     ethr =  1.00E-02,  avg # of iterations =  4.7

     total cpu time spent up to now is       58.6 secs

     total energy              =    -549.72925748 Ry
     estimated scf accuracy    <      12.59816121 Ry

     total magnetization       =    -0.00 Bohr mag/cell
     absolute magnetization    =     8.74 Bohr mag/cell

     iteration #  2     ecut=    30.00 Ry     beta= 0.40
     Davidson diagonalization with overlap

---- Real-time Memory Report at c_bands before calling an iterative solver
           304 MiB given to the printing process from OS
             0 MiB allocation reported by mallinfo(arena+hblkhd)
          6092 MiB available memory on the node where the printing process lives
------------------
     ethr =  1.00E-02,  avg # of iterations =  2.7

     total cpu time spent up to now is       98.1 secs

     total energy              =    -551.50274344 Ry
     estimated scf accuracy    <       3.23835418 Ry

     total magnetization       =    -0.00 Bohr mag/cell
     absolute magnetization    =     6.83 Bohr mag/cell

     iteration #  3     ecut=    30.00 Ry     beta= 0.40
     Davidson diagonalization with overlap

---- Real-time Memory Report at c_bands before calling an iterative solver
           304 MiB given to the printing process from OS
             0 MiB allocation reported by mallinfo(arena+hblkhd)
          6093 MiB available memory on the node where the printing process lives
------------------
     ethr =  7.36E-03,  avg # of iterations =  1.9

     total cpu time spent up to now is      127.8 secs

     total energy              =    -551.97539215 Ry
     estimated scf accuracy    <       0.87975027 Ry

     total magnetization       =     0.01 Bohr mag/cell
     absolute magnetization    =     7.85 Bohr mag/cell

     iteration #  4     ecut=    30.00 Ry     beta= 0.40
     Davidson diagonalization with overlap

---- Real-time Memory Report at c_bands before calling an iterative solver
           305 MiB given to the printing process from OS
             0 MiB allocation reported by mallinfo(arena+hblkhd)
          6091 MiB available memory on the node where the printing process lives
------------------
     ethr =  2.00E-03,  avg # of iterations =  2.0

     total cpu time spent up to now is      157.3 secs

     total energy              =    -552.08603137 Ry
     estimated scf accuracy    <       0.13501733 Ry

     total magnetization       =    -0.06 Bohr mag/cell
     absolute magnetization    =     6.98 Bohr mag/cell

     iteration #  5     ecut=    30.00 Ry     beta= 0.40
     Davidson diagonalization with overlap

---- Real-time Memory Report at c_bands before calling an iterative solver
           305 MiB given to the printing process from OS
             0 MiB allocation reported by mallinfo(arena+hblkhd)
          6090 MiB available memory on the node where the printing process lives
------------------
     ethr =  3.07E-04,  avg # of iterations =  2.1

     total cpu time spent up to now is      187.6 secs

     total energy              =    -552.08735506 Ry
     estimated scf accuracy    <       0.24990246 Ry

     total magnetization       =     0.85 Bohr mag/cell
     absolute magnetization    =     6.74 Bohr mag/cell

     iteration #  6     ecut=    30.00 Ry     beta= 0.40
     Davidson diagonalization with overlap

---- Real-time Memory Report at c_bands before calling an iterative solver
           305 MiB given to the printing process from OS
             0 MiB allocation reported by mallinfo(arena+hblkhd)
          6088 MiB available memory on the node where the printing process lives
------------------
     ethr =  3.07E-04,  avg # of iterations =  1.1

     total cpu time spent up to now is      215.6 secs

     total energy              =    -552.09821032 Ry
     estimated scf accuracy    <       0.00946999 Ry

     total magnetization       =    -0.14 Bohr mag/cell
     absolute magnetization    =     6.76 Bohr mag/cell

     iteration #  7     ecut=    30.00 Ry     beta= 0.40
     Davidson diagonalization with overlap

---- Real-time Memory Report at c_bands before calling an iterative solver
           306 MiB given to the printing process from OS
             0 MiB allocation reported by mallinfo(arena+hblkhd)
          6089 MiB available memory on the node where the printing process lives
------------------
     ethr =  2.15E-05,  avg # of iterations =  2.7

     total cpu time spent up to now is      246.4 secs

     total energy              =    -552.09933794 Ry
     estimated scf accuracy    <       0.00231618 Ry

     total magnetization       =     0.01 Bohr mag/cell
     absolute magnetization    =     6.65 Bohr mag/cell

     iteration #  8     ecut=    30.00 Ry     beta= 0.40
     Davidson diagonalization with overlap

---- Real-time Memory Report at c_bands before calling an iterative solver
           306 MiB given to the printing process from OS
             0 MiB allocation reported by mallinfo(arena+hblkhd)
          6089 MiB available memory on the node where the printing process lives
------------------
     ethr =  5.26E-06,  avg # of iterations =  2.5

     total cpu time spent up to now is      276.9 secs

     total energy              =    -552.09957033 Ry
     estimated scf accuracy    <       0.00023690 Ry

     total magnetization       =     0.00 Bohr mag/cell
     absolute magnetization    =     6.63 Bohr mag/cell

     iteration #  9     ecut=    30.00 Ry     beta= 0.40
     Davidson diagonalization with overlap

---- Real-time Memory Report at c_bands before calling an iterative solver
           307 MiB given to the printing process from OS
             0 MiB allocation reported by mallinfo(arena+hblkhd)
          6088 MiB available memory on the node where the printing process lives
------------------
     ethr =  5.38E-07,  avg # of iterations =  2.2

     total cpu time spent up to now is      307.6 secs

     total energy              =    -552.09959426 Ry
     estimated scf accuracy    <       0.00006625 Ry

     total magnetization       =     0.00 Bohr mag/cell
     absolute magnetization    =     6.61 Bohr mag/cell

     iteration # 10     ecut=    30.00 Ry     beta= 0.40
     Davidson diagonalization with overlap

---- Real-time Memory Report at c_bands before calling an iterative solver
           307 MiB given to the printing process from OS
             0 MiB allocation reported by mallinfo(arena+hblkhd)
          6086 MiB available memory on the node where the printing process lives
------------------
     ethr =  1.51E-07,  avg # of iterations =  2.0

     total cpu time spent up to now is      337.6 secs

     total energy              =    -552.09960063 Ry
     estimated scf accuracy    <       0.00000961 Ry

     total magnetization       =    -0.00 Bohr mag/cell
     absolute magnetization    =     6.60 Bohr mag/cell

     iteration # 11     ecut=    30.00 Ry     beta= 0.40
     Davidson diagonalization with overlap

---- Real-time Memory Report at c_bands before calling an iterative solver
           307 MiB given to the printing process from OS
             0 MiB allocation reported by mallinfo(arena+hblkhd)
          6092 MiB available memory on the node where the printing process lives
------------------
     ethr =  2.18E-08,  avg # of iterations =  2.0

     total cpu time spent up to now is      369.8 secs

     total energy              =    -552.09960260 Ry
     estimated scf accuracy    <       0.00000014 Ry

     total magnetization       =    -0.00 Bohr mag/cell
     absolute magnetization    =     6.60 Bohr mag/cell

     iteration # 12     ecut=    30.00 Ry     beta= 0.40
     Davidson diagonalization with overlap

---- Real-time Memory Report at c_bands before calling an iterative solver
           307 MiB given to the printing process from OS
             0 MiB allocation reported by mallinfo(arena+hblkhd)
          6087 MiB available memory on the node where the printing process lives
------------------
     ethr =  3.14E-10,  avg # of iterations =  2.0

     total cpu time spent up to now is      402.4 secs

     total energy              =    -552.09960264 Ry
     estimated scf accuracy    <       0.00000002 Ry

     total magnetization       =     0.00 Bohr mag/cell
     absolute magnetization    =     6.60 Bohr mag/cell

     iteration # 13     ecut=    30.00 Ry     beta= 0.40
     Davidson diagonalization with overlap

---- Real-time Memory Report at c_bands before calling an iterative solver
           307 MiB given to the printing process from OS
             0 MiB allocation reported by mallinfo(arena+hblkhd)
          6086 MiB available memory on the node where the printing process lives
------------------
     ethr =  4.00E-11,  avg # of iterations =  2.0

     total cpu time spent up to now is      432.2 secs

     total energy              =    -552.09960265 Ry
     estimated scf accuracy    <          2.6E-09 Ry

     total magnetization       =    -0.00 Bohr mag/cell
     absolute magnetization    =     6.60 Bohr mag/cell

     iteration # 14     ecut=    30.00 Ry     beta= 0.40
     Davidson diagonalization with overlap

---- Real-time Memory Report at c_bands before calling an iterative solver
           307 MiB given to the printing process from OS
             0 MiB allocation reported by mallinfo(arena+hblkhd)
          6086 MiB available memory on the node where the printing process lives
------------------
     ethr =  5.81E-12,  avg # of iterations =  2.0

     total cpu time spent up to now is      463.6 secs

     total energy              =    -552.09960265 Ry
     estimated scf accuracy    <          5.4E-10 Ry

     total magnetization       =     0.00 Bohr mag/cell
     absolute magnetization    =     6.60 Bohr mag/cell

     iteration # 15     ecut=    30.00 Ry     beta= 0.40
     Davidson diagonalization with overlap

---- Real-time Memory Report at c_bands before calling an iterative solver
           307 MiB given to the printing process from OS
             0 MiB allocation reported by mallinfo(arena+hblkhd)
          6086 MiB available memory on the node where the printing process lives
------------------
     ethr =  1.23E-12,  avg # of iterations =  2.0

     total cpu time spent up to now is      493.8 secs

     total energy              =    -552.09960265 Ry
     estimated scf accuracy    <          4.3E-10 Ry

     total magnetization       =     0.00 Bohr mag/cell
     absolute magnetization    =     6.60 Bohr mag/cell

     iteration # 16     ecut=    30.00 Ry     beta= 0.40
     Davidson diagonalization with overlap

---- Real-time Memory Report at c_bands before calling an iterative solver
           307 MiB given to the printing process from OS
             0 MiB allocation reported by mallinfo(arena+hblkhd)
          6087 MiB available memory on the node where the printing process lives
------------------
     ethr =  9.66E-13,  avg # of iterations =  1.6

     total cpu time spent up to now is      522.7 secs

     total energy              =    -552.09960265 Ry
     estimated scf accuracy    <          3.1E-09 Ry

     total magnetization       =    -0.00 Bohr mag/cell
     absolute magnetization    =     6.60 Bohr mag/cell

     iteration # 17     ecut=    30.00 Ry     beta= 0.40
     Davidson diagonalization with overlap

---- Real-time Memory Report at c_bands before calling an iterative solver
           307 MiB given to the printing process from OS
             0 MiB allocation reported by mallinfo(arena+hblkhd)
          6088 MiB available memory on the node where the printing process lives
------------------
     ethr =  9.66E-13,  avg # of iterations =  1.5

     Magnetic moment per site  (integrated on atomic sphere of radius R)
     atom   1 (R=0.206)  charge= 13.2046  magn=  2.8950
     atom   2 (R=0.206)  charge= 13.2046  magn= -2.8950
     atom   3 (R=0.206)  charge=  5.6735  magn= -0.0000
     atom   4 (R=0.206)  charge=  5.6735  magn= -0.0000

     total cpu time spent up to now is      551.7 secs

     End of self-consistent calculation

 ------ SPIN UP ------------


          k = 0.0000 0.0000 0.0000 (   731 PWs)   bands (ev):

   -90.6169 -88.2836 -50.4188 -50.0562 -50.0562 -46.7789 -46.7348 -46.7348
    -6.9955  -5.9697   5.6367   8.6843   8.6843  11.5005  11.5034  11.5034
    12.8099  12.8099  13.3150  13.4566  14.6732  14.6732  15.6398  15.6398
    15.9033  17.5099  17.5099  18.2349  22.7912  26.5427

     occupation numbers 
     1.0000   1.0000   1.0000   1.0000   1.0000   1.0000   1.0000   1.0000
     1.0000   1.0000   1.0000   1.0000   1.0000   1.0000   1.0000   1.0000
     1.0000   1.0000   1.0000   1.0000   1.0000   1.0000   0.0114   0.0114
     0.0000   0.0000   0.0000   0.0000   0.0000   0.0000

          k = 0.2143-0.0714-0.0714 (   750 PWs)   bands (ev):

   -90.6306 -88.2974 -50.4324 -50.2105 -50.0840 -47.5468 -47.3809 -47.2410
    -6.8621  -5.9354   6.0820   8.6600   8.8435   9.4908  10.6830  10.7594
    12.6637  13.0347  13.0394  13.8999  14.0130  15.0017  15.5793  15.7271
    15.8953  17.2393  17.5058  19.9304  22.4156  25.8547

     occupation numbers 
     1.0000   1.0000   1.0000   1.0000   1.0000   1.0000   1.0000   1.0000
     1.0000   1.0000   1.0000   1.0000   1.0000   1.0000   1.0000   1.0000
     1.0000   1.0000   1.0000   1.0000   1.0000   1.0000   0.0497   0.0007
     0.0000   0.0000   0.0000   0.0000   0.0000   0.0000

          k = 0.4286-0.1429-0.1429 (   762 PWs)   bands (ev):

   -90.6403 -88.3063 -50.7391 -50.4645 -50.1696 -47.9024 -47.6238 -47.3259
    -6.4541  -5.9158   6.9165   7.6653   7.9106   8.9392   9.7084  10.1246
    12.5038  12.9719  13.0482  14.0133  14.1053  14.9913  15.5831  15.8907
    16.0315  17.0862  18.5663  21.3650  22.2743  24.3010

     occupation numbers 
     1.0000   1.0000   1.0000   1.0000   1.0000   1.0000   1.0000   1.0000
     1.0000   1.0000   1.0000   1.0000   1.0000   1.0000   1.0000   1.0000
     1.0000   1.0000   1.0000   1.0000   1.0000   1.0000   0.0457   0.0000
     0.0000   0.0000   0.0000   0.0000   0.0000   0.0000

          k = 0.6429-0.2143-0.2143 (   769 PWs)   bands (ev):

   -90.6463 -88.3117 -50.8516 -50.5202 -50.3401 -48.0390 -47.7100 -47.5125
    -6.0860  -5.9191   6.7576   7.0879   8.0552   8.8694   8.9912   9.6296
    12.1706  12.7074  13.0886  14.4148  14.4742  14.5897  15.7027  15.8826
    16.8892  16.9309  19.7870  20.5515  22.8827  23.2700

     occupation numbers 
     1.0000   1.0000   1.0000   1.0000   1.0000   1.0000   1.0000   1.0000
     1.0000   1.0000   1.0000   1.0000   1.0000   1.0000   1.0000   1.0000
     1.0000   1.0000   1.0000   1.0000   1.0000   1.0000   0.0017   0.0000
     0.0000   0.0000   0.0000   0.0000   0.0000   0.0000

          k =-0.6429 0.2143 0.2143 (   769 PWs)   bands (ev):

   -90.6463 -88.3117 -50.8516 -50.5202 -50.3401 -48.0390 -47.7100 -47.5125
    -6.0860  -5.9191   6.7576   7.0879   8.0552   8.8694   8.9912   9.6296
    12.1706  12.7074  13.0886  14.4148  14.4742  14.5897  15.7027  15.8826
    16.8892  16.9309  19.7870  20.5515  22.8827  23.2700

     occupation numbers 
     1.0000   1.0000   1.0000   1.0000   1.0000   1.0000   1.0000   1.0000
     1.0000   1.0000   1.0000   1.0000   1.0000   1.0000   1.0000   1.0000
     1.0000   1.0000   1.0000   1.0000   1.0000   1.0000   0.0017   0.0000
     0.0000   0.0000   0.0000   0.0000   0.0000   0.0000

          k =-0.4286 0.1429 0.1429 (   762 PWs)   bands (ev):

   -90.6403 -88.3063 -50.7391 -50.4645 -50.1696 -47.9024 -47.6238 -47.3259
    -6.4541  -5.9158   6.9165   7.6653   7.9106   8.9392   9.7084  10.1246
    12.5038  12.9719  13.0482  14.0133  14.1053  14.9913  15.5831  15.8907
    16.0315  17.0862  18.5663  21.3650  22.2743  24.3010

     occupation numbers 
     1.0000   1.0000   1.0000   1.0000   1.0000   1.0000   1.0000   1.0000
     1.0000   1.0000   1.0000   1.0000   1.0000   1.0000   1.0000   1.0000
     1.0000   1.0000   1.0000   1.0000   1.0000   1.0000   0.0457   0.0000
     0.0000   0.0000   0.0000   0.0000   0.0000   0.0000

          k =-0.2143 0.0714 0.0714 (   750 PWs)   bands (ev):

   -90.6306 -88.2974 -50.4324 -50.2105 -50.0840 -47.5468 -47.3809 -47.2410
    -6.8621  -5.9354   6.0820   8.6600   8.8435   9.4908  10.6830  10.7594
    12.6637  13.0347  13.0394  13.8999  14.0130  15.0017  15.5793  15.7271
    15.8953  17.2393  17.5058  19.9304  22.4156  25.8547

     occupation numbers 
     1.0000   1.0000   1.0000   1.0000   1.0000   1.0000   1.0000   1.0000
     1.0000   1.0000   1.0000   1.0000   1.0000   1.0000   1.0000   1.0000
     1.0000   1.0000   1.0000   1.0000   1.0000   1.0000   0.0497   0.0007
     0.0000   0.0000   0.0000   0.0000   0.0000   0.0000

          k =-0.0714 0.2143-0.0714 (   750 PWs)   bands (ev):

   -90.6306 -88.2974 -50.4324 -50.2105 -50.0840 -47.5468 -47.3809 -47.2410
    -6.8621  -5.9354   6.0820   8.6600   8.8435   9.4908  10.6830  10.7594
    12.6637  13.0347  13.0394  13.8999  14.0130  15.0017  15.5793  15.7271
    15.8953  17.2393  17.5058  19.9304  22.4156  25.8547

     occupation numbers 
     1.0000   1.0000   1.0000   1.0000   1.0000   1.0000   1.0000   1.0000
     1.0000   1.0000   1.0000   1.0000   1.0000   1.0000   1.0000   1.0000
     1.0000   1.0000   1.0000   1.0000   1.0000   1.0000   0.0497   0.0007
     0.0000   0.0000   0.0000   0.0000   0.0000   0.0000

          k = 0.1429 0.1429-0.1429 (   749 PWs)   bands (ev):

   -90.6294 -88.2963 -50.3961 -50.2239 -50.1019 -47.4394 -47.3851 -47.2522
    -6.8443  -5.9568   6.1239   8.6115   8.9627   9.4642  10.6756  10.6859
    12.7436  12.7928  13.0616  14.1671  14.2946  14.9947  15.4345  15.6272
    15.8917  17.1952  17.3892  19.8499  22.4992  25.9704

     occupation numbers 
     1.0000   1.0000   1.0000   1.0000   1.0000   1.0000   1.0000   1.0000
     1.0000   1.0000   1.0000   1.0000   1.0000   1.0000   1.0000   1.0000
     1.0000   1.0000   1.0000   1.0000   1.0000   1.0000   0.4429   0.0159
     0.0000   0.0000   0.0000   0.0000   0.0000   0.0000

          k = 0.3571 0.0714-0.2143 (   752 PWs)   bands (ev):

   -90.6318 -88.2984 -50.3508 -50.3040 -50.1820 -47.5214 -47.4423 -47.3412
    -6.5475  -5.9430   6.7594   7.9844   8.4678   8.8780   9.7862  10.0778
    12.7052  13.0043  13.2103  13.9319  14.5228  15.4151  15.6842  15.9188
    16.4079  17.3387  17.9528  21.0093  22.4877  25.3364

     occupation numbers 
     1.0000   1.0000   1.0000   1.0000   1.0000   1.0000   1.0000   1.0000
     1.0000   1.0000   1.0000   1.0000   1.0000   1.0000   1.0000   1.0000
     1.0000   1.0000   1.0000   1.0000   1.0000   0.5231   0.0031   0.0000
     0.0000   0.0000   0.0000   0.0000   0.0000   0.0000

          k = 0.5714 0.0000-0.2857 (   775 PWs)   bands (ev):

   -90.6515 -88.3166 -50.8994 -50.6251 -50.5022 -48.0810 -47.8058 -47.6688
    -6.1871  -5.9157   7.0212   7.1062   8.0476   8.6853   9.1560   9.2049
    12.3387  12.6760  12.8305  13.7738  14.2827  15.1796  15.3209  15.7857
    16.3701  17.0746  19.5855  21.3876  22.6596  23.9904

     occupation numbers 
     1.0000   1.0000   1.0000   1.0000   1.0000   1.0000   1.0000   1.0000
     1.0000   1.0000   1.0000   1.0000   1.0000   1.0000   1.0000   1.0000
     1.0000   1.0000   1.0000   1.0000   1.0000   0.9939   0.8501   0.0001
     0.0000   0.0000   0.0000   0.0000   0.0000   0.0000

          k =-0.7143 0.4286 0.1429 (   765 PWs)   bands (ev):

   -90.6429 -88.3085 -50.7164 -50.4189 -50.3966 -47.9028 -47.5707 -47.5562
    -5.9628  -5.9411   6.7482   7.0974   8.3273   8.5928   8.7927   8.9756
    12.4966  12.9946  13.2442  14.1921  14.5607  15.0435  15.9595  16.0318
    16.9621  17.4080  20.3561  21.0884  22.5086  23.1717

     occupation numbers 
     1.0000   1.0000   1.0000   1.0000   1.0000   1.0000   1.0000   1.0000
     1.0000   1.0000   1.0000   1.0000   1.0000   1.0000   1.0000   1.0000
[...]
    11.9867  12.7471  12.8568  14.2614  14.3301  14.7640  15.4410  15.7600
    16.6378  17.4102  17.9334  19.5045  23.4433  24.8541

     occupation numbers 
     1.0000   1.0000   1.0000   1.0000   1.0000   1.0000   1.0000   1.0000
     1.0000   1.0000   1.0000   1.0000   1.0000   1.0000   1.0000   1.0000
     1.0000   1.0000   1.0000   1.0000   1.0000   1.0000   0.4165   0.0002
     0.0000   0.0000   0.0000   0.0000   0.0000   0.0000

          k =-0.1429-0.4286 0.1429 (   761 PWs)   bands (ev):

   -90.6401 -88.3062 -50.5311 -50.4367 -50.3329 -47.7069 -47.5473 -47.4765
    -6.4540  -6.0503   6.8499   7.6515   8.6960   8.9565   9.6902  10.1356
    12.6034  12.7142  13.0447  13.7679  14.1082  15.2541  15.6153  15.7084
    15.9684  17.0720  18.5575  20.2040  23.1505  25.5973

     occupation numbers 
     1.0000   1.0000   1.0000   1.0000   1.0000   1.0000   1.0000   1.0000
     1.0000   1.0000   1.0000   1.0000   1.0000   1.0000   1.0000   1.0000
     1.0000   1.0000   1.0000   1.0000   1.0000   0.9583   0.0216   0.0014
     0.0000   0.0000   0.0000   0.0000   0.0000   0.0000

          k = 0.0714-0.5000 0.0714 (   758 PWs)   bands (ev):

   -90.6378 -88.3039 -50.6411 -50.4693 -50.1132 -47.7812 -47.4918 -47.2376
    -6.3952  -5.9739   6.7540   7.5263   8.1452   8.8827  10.0243  10.2249
    12.3667  13.0386  13.1702  13.7630  14.2900  15.1191  15.8323  15.8361
    15.9014  17.2749  19.3920  21.0664  22.3356  24.4264

     occupation numbers 
     1.0000   1.0000   1.0000   1.0000   1.0000   1.0000   1.0000   1.0000
     1.0000   1.0000   1.0000   1.0000   1.0000   1.0000   1.0000   1.0000
     1.0000   1.0000   1.0000   1.0000   1.0000   0.9991   0.0000   0.0000
     0.0000   0.0000   0.0000   0.0000   0.0000   0.0000

          k = 0.2143-0.3571-0.0714 (   752 PWs)   bands (ev):

   -90.6318 -88.2984 -50.3508 -50.3040 -50.1820 -47.5214 -47.4423 -47.3412
    -6.5475  -5.9430   6.7594   7.9844   8.4678   8.8780   9.7862  10.0778
    12.7052  13.0043  13.2103  13.9319  14.5228  15.4151  15.6842  15.9188
    16.4079  17.3387  17.9528  21.0093  22.4877  25.3364

     occupation numbers 
     1.0000   1.0000   1.0000   1.0000   1.0000   1.0000   1.0000   1.0000
     1.0000   1.0000   1.0000   1.0000   1.0000   1.0000   1.0000   1.0000
     1.0000   1.0000   1.0000   1.0000   1.0000   0.5231   0.0031   0.0000
     0.0000   0.0000   0.0000   0.0000   0.0000   0.0000

          k = 0.4286-0.4286-0.1429 (   762 PWs)   bands (ev):

   -90.6402 -88.3062 -50.6564 -50.4245 -50.2741 -47.8363 -47.6012 -47.4379
    -6.1731  -5.9106   6.8331   7.4911   8.2403   8.7233   9.0593   9.2029
    12.6362  12.8536  13.1967  14.1067  14.6357  15.1434  15.5823  16.1174
    16.6031  17.7917  18.8726  20.3258  23.8429  24.2592

     occupation numbers 
     1.0000   1.0000   1.0000   1.0000   1.0000   1.0000   1.0000   1.0000
     1.0000   1.0000   1.0000   1.0000   1.0000   1.0000   1.0000   1.0000
     1.0000   1.0000   1.0000   1.0000   1.0000   0.9980   0.0466   0.0000
     0.0000   0.0000   0.0000   0.0000   0.0000   0.0000

          k = 0.6429-0.5000-0.2143 (   766 PWs)   bands (ev):

   -90.6437 -88.3094 -50.7269 -50.4275 -50.4212 -47.9109 -47.6045 -47.5690
    -5.9606  -5.9426   6.3654   7.2357   8.5137   8.8030   8.8756   8.9770
    12.3958  12.9879  13.1270  14.0739  14.4531  15.2473  15.9020  15.9633
    17.0817  17.4829  19.6943  20.5631  22.2814  23.7707

     occupation numbers 
     1.0000   1.0000   1.0000   1.0000   1.0000   1.0000   1.0000   1.0000
     1.0000   1.0000   1.0000   1.0000   1.0000   1.0000   1.0000   1.0000
     1.0000   1.0000   1.0000   1.0000   1.0000   0.9643   0.0000   0.0000
     0.0000   0.0000   0.0000   0.0000   0.0000   0.0000

          k = 0.8571-0.5714-0.2857 (   759 PWs)   bands (ev):

   -90.6384 -88.3046 -50.6091 -50.3325 -50.2340 -47.7474 -47.4979 -47.3856
    -6.1379  -5.9439   6.7654   7.0385   8.4792   8.8638   9.2096   9.5786
    12.5239  12.9647  13.0935  14.2526  14.2974  15.5295  15.7743  16.0070
    16.7554  17.3258  19.9223  21.0130  22.4517  23.7034

     occupation numbers 
     1.0000   1.0000   1.0000   1.0000   1.0000   1.0000   1.0000   1.0000
     1.0000   1.0000   1.0000   1.0000   1.0000   1.0000   1.0000   1.0000
     1.0000   1.0000   1.0000   1.0000   1.0000   0.1291   0.0001   0.0000
     0.0000   0.0000   0.0000   0.0000   0.0000   0.0000

          k =-0.4286-0.1429 0.1429 (   761 PWs)   bands (ev):

   -90.6401 -88.3062 -50.5311 -50.4367 -50.3329 -47.7069 -47.5473 -47.4765
    -6.4540  -6.0503   6.8499   7.6515   8.6960   8.9565   9.6902  10.1356
    12.6034  12.7142  13.0447  13.7679  14.1082  15.2541  15.6153  15.7084
    15.9684  17.0720  18.5575  20.2040  23.1505  25.5973

     occupation numbers 
     1.0000   1.0000   1.0000   1.0000   1.0000   1.0000   1.0000   1.0000
     1.0000   1.0000   1.0000   1.0000   1.0000   1.0000   1.0000   1.0000
     1.0000   1.0000   1.0000   1.0000   1.0000   0.9583   0.0216   0.0014
     0.0000   0.0000   0.0000   0.0000   0.0000   0.0000

          k =-0.2143-0.2143 0.0714 (   749 PWs)   bands (ev):

   -90.6296 -88.2965 -50.3698 -50.1988 -50.1069 -47.4838 -47.3658 -47.2695
    -6.7471  -6.0707   6.4699   8.6788   9.0033   9.1810  10.3441  10.4147
    12.6826  12.7206  13.2073  14.0538  14.5233  15.2237  15.5682  15.7951
    15.9757  17.1533  17.2396  19.5591  23.1897  26.4463

     occupation numbers 
     1.0000   1.0000   1.0000   1.0000   1.0000   1.0000   1.0000   1.0000
     1.0000   1.0000   1.0000   1.0000   1.0000   1.0000   1.0000   1.0000
     1.0000   1.0000   1.0000   1.0000   1.0000   0.9797   0.0626   0.0000
     0.0000   0.0000   0.0000   0.0000   0.0000   0.0000

          k =-0.0000-0.2857-0.0000 (   754 PWs)   bands (ev):

   -90.6340 -88.3005 -50.4691 -50.2931 -50.1870 -47.5185 -47.4632 -47.3360
    -6.7924  -6.0233   6.2846   8.7085   8.8254   9.1231  10.6019  10.6218
    12.5517  12.9354  13.1772  13.7067  13.8204  15.0630  15.5114  15.7241
    15.9671  17.3239  17.5422  19.5667  22.9003  25.9688

     occupation numbers 
     1.0000   1.0000   1.0000   1.0000   1.0000   1.0000   1.0000   1.0000
     1.0000   1.0000   1.0000   1.0000   1.0000   1.0000   1.0000   1.0000
     1.0000   1.0000   1.0000   1.0000   1.0000   0.9999   0.1729   0.0008
     0.0000   0.0000   0.0000   0.0000   0.0000   0.0000

          k = 0.1429-0.1429-0.1429 (   749 PWs)   bands (ev):

   -90.6294 -88.2963 -50.3961 -50.2239 -50.1019 -47.4394 -47.3851 -47.2522
    -6.8443  -5.9568   6.1239   8.6115   8.9627   9.4642  10.6756  10.6859
    12.7436  12.7928  13.0616  14.1671  14.2946  14.9947  15.4345  15.6272
    15.8917  17.1952  17.3892  19.8499  22.4992  25.9703

     occupation numbers 
     1.0000   1.0000   1.0000   1.0000   1.0000   1.0000   1.0000   1.0000
     1.0000   1.0000   1.0000   1.0000   1.0000   1.0000   1.0000   1.0000
     1.0000   1.0000   1.0000   1.0000   1.0000   1.0000   0.4429   0.0159
     0.0000   0.0000   0.0000   0.0000   0.0000   0.0000

          k = 0.3571-0.2143-0.2143 (   759 PWs)   bands (ev):

   -90.6378 -88.3039 -50.6768 -50.3860 -50.1775 -47.8636 -47.5247 -47.3011
    -6.4521  -5.9188   7.0146   7.5795   8.0643   9.0450   9.6001   9.9324
    12.4382  12.9611  13.0313  14.3464  14.6200  14.8214  15.6612  16.0105
    16.6186  16.9854  17.8049  20.4733  22.8866  24.8598

     occupation numbers 
     1.0000   1.0000   1.0000   1.0000   1.0000   1.0000   1.0000   1.0000
     1.0000   1.0000   1.0000   1.0000   1.0000   1.0000   1.0000   1.0000
     1.0000   1.0000   1.0000   1.0000   1.0000   1.0000   0.0062   0.0000
     0.0000   0.0000   0.0000   0.0000   0.0000   0.0000

          k = 0.5714-0.2857-0.2857 (   761 PWs)   bands (ev):

   -90.6396 -88.3055 -50.7117 -50.3757 -50.2040 -47.9032 -47.5569 -47.3725
    -6.0731  -5.9251   6.4814   7.3721   8.1719   8.8518   9.0712   9.5783
    12.1806  12.8165  13.3280  14.6003  14.8099  14.8455  15.7869  16.1238
    17.2255  17.3898  19.3728  19.7720  23.1887  23.8590

     occupation numbers 
     1.0000   1.0000   1.0000   1.0000   1.0000   1.0000   1.0000   1.0000
     1.0000   1.0000   1.0000   1.0000   1.0000   1.0000   1.0000   1.0000
     1.0000   1.0000   1.0000   1.0000   1.0000   1.0000   0.0001   0.0000
     0.0000   0.0000   0.0000   0.0000   0.0000   0.0000

          k = 0.7857-0.3571-0.3571 (   770 PWs)   bands (ev):

   -90.6477 -88.3131 -50.9115 -50.4931 -50.3617 -48.0835 -47.6757 -47.5161
    -6.0894  -5.9255   6.4844   7.0281   8.3751   8.8916   9.1115   9.7607
    12.0122  12.5643  13.0460  14.2955  14.3852  14.7913  15.5748  15.8838
    16.8889  17.0765  19.4556  20.9145  22.0820  23.4689

     occupation numbers 
     1.0000   1.0000   1.0000   1.0000   1.0000   1.0000   1.0000   1.0000
     1.0000   1.0000   1.0000   1.0000   1.0000   1.0000   1.0000   1.0000
     1.0000   1.0000   1.0000   1.0000   1.0000   1.0000   0.0546   0.0000
     0.0000   0.0000   0.0000   0.0000   0.0000   0.0000

          k =-0.5000 0.0714 0.0714 (   758 PWs)   bands (ev):

   -90.6378 -88.3039 -50.6411 -50.4693 -50.1132 -47.7812 -47.4918 -47.2376
    -6.3952  -5.9739   6.7540   7.5263   8.1452   8.8827  10.0243  10.2249
    12.3667  13.0386  13.1702  13.7630  14.2900  15.1191  15.8323  15.8361
    15.9014  17.2749  19.3920  21.0664  22.3356  24.4264

     occupation numbers 
     1.0000   1.0000   1.0000   1.0000   1.0000   1.0000   1.0000   1.0000
     1.0000   1.0000   1.0000   1.0000   1.0000   1.0000   1.0000   1.0000
     1.0000   1.0000   1.0000   1.0000   1.0000   0.9991   0.0000   0.0000
     0.0000   0.0000   0.0000   0.0000   0.0000   0.0000

          k =-0.2857-0.0000-0.0000 (   754 PWs)   bands (ev):

   -90.6340 -88.3005 -50.4691 -50.2931 -50.1870 -47.5185 -47.4632 -47.3360
    -6.7924  -6.0233   6.2846   8.7085   8.8254   9.1231  10.6019  10.6218
    12.5517  12.9354  13.1772  13.7067  13.8204  15.0630  15.5114  15.7241
    15.9671  17.3239  17.5422  19.5667  22.9003  25.9688

     occupation numbers 
     1.0000   1.0000   1.0000   1.0000   1.0000   1.0000   1.0000   1.0000
     1.0000   1.0000   1.0000   1.0000   1.0000   1.0000   1.0000   1.0000
     1.0000   1.0000   1.0000   1.0000   1.0000   0.9999   0.1729   0.0008
     0.0000   0.0000   0.0000   0.0000   0.0000   0.0000

          k =-0.0714-0.0714-0.0714 (   755 PWs)   bands (ev):

   -90.6357 -88.3022 -50.5428 -50.2239 -50.2239 -47.6297 -47.3422 -47.3422
    -6.9801  -6.0164   5.8503   8.7590   8.7590  10.5638  11.1504  11.1504
    12.5587  12.5587  12.9089  14.0300  14.0425  14.0425  15.3094  15.3094
    15.5928  17.5189  17.5189  18.1865  23.0554  26.8613

     occupation numbers 
     1.0000   1.0000   1.0000   1.0000   1.0000   1.0000   1.0000   1.0000
     1.0000   1.0000   1.0000   1.0000   1.0000   1.0000   1.0000   1.0000
     1.0000   1.0000   1.0000   1.0000   1.0000   1.0000   0.8764   0.8764
     0.0369   0.0000   0.0000   0.0000   0.0000   0.0000

     the Fermi energy is    15.4207 ev

!    total energy              =    -552.09960265 Ry
     estimated scf accuracy    <          7.5E-12 Ry
     smearing contrib. (-TS)   =      -0.00353163 Ry
     internal energy E=F+TS    =    -552.09607101 Ry

     The total energy is F=E-TS. E is the sum of the following terms:
     one-electron contribution =    -216.31502814 Ry
     hartree contribution      =     124.24869317 Ry
     xc contribution           =     -82.00569706 Ry
     ewald contribution        =    -378.02403899 Ry

     total magnetization       =    -0.00 Bohr mag/cell
     absolute magnetization    =     6.60 Bohr mag/cell

     convergence has been achieved in  17 iterations

     Forces acting on atoms (cartesian axes, Ry/au):

     atom    1 type  1   force =     0.00000002    0.00000002    0.00000002
     atom    2 type  2   force =    -0.00000002   -0.00000002   -0.00000002
     atom    3 type  3   force =     0.00000031    0.00000031    0.00000032
     atom    4 type  3   force =    -0.00000031   -0.00000031   -0.00000031
     The non-local contrib.  to forces
     atom    1 type  1   force =     0.00000003    0.00000003    0.00000003
     atom    2 type  2   force =    -0.00000001   -0.00000001   -0.00000001
     atom    3 type  3   force =     0.00000024    0.00000024    0.00000024
     atom    4 type  3   force =    -0.00000024   -0.00000024   -0.00000024
     The ionic contribution  to forces
     atom    1 type  1   force =    -0.00000000   -0.00000000   -0.00000000
     atom    2 type  2   force =     0.00000000    0.00000000    0.00000000
     atom    3 type  3   force =    -0.00000000   -0.00000000   -0.00000000
     atom    4 type  3   force =     0.00000000    0.00000000    0.00000000
     The local contribution  to forces
     atom    1 type  1   force =    -0.00000005   -0.00000004   -0.00000004
     atom    2 type  2   force =     0.00000012    0.00000011    0.00000013
     atom    3 type  3   force =    -0.00000033   -0.00000034   -0.00000035
     atom    4 type  3   force =     0.00000027    0.00000028    0.00000028
     The core correction contribution to forces
     atom    1 type  1   force =    -0.00000001   -0.00000001   -0.00000001
     atom    2 type  2   force =     0.00000001    0.00000001    0.00000001
     atom    3 type  3   force =    -0.00000002   -0.00000002   -0.00000002
     atom    4 type  3   force =     0.00000002    0.00000002    0.00000002
     The Hubbard contrib.    to forces
     atom    1 type  1   force =     0.00000000    0.00000000    0.00000000
     atom    2 type  2   force =     0.00000000    0.00000000    0.00000000
     atom    3 type  3   force =     0.00000000    0.00000000    0.00000000
     atom    4 type  3   force =     0.00000000    0.00000000    0.00000000
     The SCF correction term to forces
     atom    1 type  1   force =     0.00000006    0.00000004    0.00000005
     atom    2 type  2   force =    -0.00000013   -0.00000012   -0.00000014
     atom    3 type  3   force =     0.00000043    0.00000044    0.00000044
     atom    4 type  3   force =    -0.00000036   -0.00000036   -0.00000037

     Total force =     0.000001     Total SCF correction =     0.000001
     SCF correction compared to forces is large: reduce conv_thr to get better values


     Computing stress (Cartesian axis) and pressure

          total   stress  (Ry/bohr**3)                   (kbar)     P=   -15348.96
  -0.10434013   0.00014655   0.00014655       -15348.96       21.56       21.56
   0.00014655  -0.10434013   0.00014655           21.56   -15348.96       21.56
   0.00014655   0.00014655  -0.10434013           21.56       21.56   -15348.96

     kinetic stress (kbar)  83384.32    200.99    200.99
                              200.99  83384.32    200.99
                              200.99    200.99  83384.32

     local   stress (kbar) -28225.17   -162.69   -162.69
                             -162.69 -28225.17   -162.69
                             -162.69   -162.69 -28225.17

     nonloc. stress (kbar) -12725.33    -57.11    -57.11
                              -57.11 -12725.33    -57.11
                              -57.11    -57.11 -12725.33

     hartree stress (kbar)  22180.77     41.44     41.44
                               41.44  22180.77     41.44
                               41.44     41.44  22180.77

     exc-cor stress (kbar)  -1078.20      0.00      0.00
                                0.00  -1078.20      0.00
                                0.00      0.00  -1078.20

     corecor stress (kbar) -11400.83     -1.07     -1.07
                               -1.07 -11400.83     -1.07
                               -1.07     -1.07 -11400.83

     ewald   stress (kbar) -67484.51     -0.00     -0.00
                               -0.00 -67484.51     -0.00
                               -0.00     -0.00 -67484.51

     hubbard stress (kbar)      0.00      0.00      0.00
                                0.00      0.00      0.00
                                0.00      0.00      0.00

     DFT-D   stress (kbar)      0.00      0.00      0.00
                                0.00      0.00      0.00
                                0.00      0.00      0.00

     XDM     stress (kbar)      0.00      0.00      0.00
                                0.00      0.00      0.00
                                0.00      0.00      0.00

     dft-nl  stress (kbar)      0.00      0.00      0.00
                                0.00      0.00      0.00
                                0.00      0.00      0.00

     TS-vdW  stress (kbar)      0.00      0.00      0.00
                                0.00      0.00      0.00
                                0.00      0.00      0.00

     MDB     stress (kbar)      0.00      0.00      0.00
                                0.00      0.00      0.00
                                0.00      0.00      0.00

     3D-RISM stress (kbar)      0.00      0.00      0.00
                                0.00      0.00      0.00
                                0.00      0.00      0.00


     Writing all to output data dir ./out/feo_af.save/ :
     XML data file, charge density, pseudopotentials, collected wavefunctions

     init_run     :     11.10s CPU     11.29s WALL (       1 calls)
     electrons    :    538.37s CPU    540.34s WALL (       1 calls)
     forces       :      3.49s CPU      3.50s WALL (       1 calls)
     stress       :     16.12s CPU     16.13s WALL (       1 calls)

     Called by init_run:
     wfcinit      :     10.54s CPU     10.71s WALL (       1 calls)
     wfcinit:atom :      0.09s CPU      0.09s WALL (     686 calls)
     wfcinit:wfcr :     10.25s CPU     10.42s WALL (     686 calls)
     potinit      :      0.20s CPU      0.21s WALL (       1 calls)
     hinit0       :      0.32s CPU      0.33s WALL (       1 calls)

     Called by electrons:
     c_bands      :    467.22s CPU    468.88s WALL (      17 calls)
     sum_band     :     70.70s CPU     71.01s WALL (      17 calls)
     v_of_rho     :      0.31s CPU      0.32s WALL (      18 calls)
     v_h          :      0.02s CPU      0.03s WALL (      18 calls)
     v_xc         :      0.31s CPU      0.33s WALL (      20 calls)
     mix_rho      :      0.07s CPU      0.07s WALL (      17 calls)

     Called by c_bands:
     init_us_2    :      5.76s CPU      5.79s WALL (   25382 calls)
     cegterg      :    455.24s CPU    456.85s WALL (   11662 calls)

     Called by sum_band:
     sum_band:wei :      0.11s CPU      0.11s WALL (      17 calls)
     sum_band:loo :     70.54s CPU     70.85s WALL (      17 calls)
     sum_band:buf :      0.31s CPU      0.32s WALL (   11662 calls)
     sum_band:ini :      2.73s CPU      2.75s WALL (   11662 calls)

     Called by *egterg:
     cdiaghg      :     22.22s CPU     22.29s WALL (   37027 calls)
     cegterg:over :     29.63s CPU     29.72s WALL (   25365 calls)
     cegterg:upda :     13.54s CPU     13.59s WALL (   25365 calls)
     cegterg:last :     27.64s CPU     27.71s WALL (   22593 calls)
     h_psi        :    356.42s CPU    357.91s WALL (   37713 calls)
     g_psi        :      0.98s CPU      0.99s WALL (   25365 calls)

     Called by h_psi:
     h_psi:calbec :     30.79s CPU     30.91s WALL (   37713 calls)
     vloc_psi     :    298.22s CPU    299.48s WALL (   37713 calls)
     add_vuspsi   :     26.59s CPU     26.69s WALL (   37713 calls)

     General routines
     calbec       :     34.57s CPU     34.71s WALL (   41143 calls)
     fft          :      0.22s CPU      0.24s WALL (     164 calls)
     ffts         :      0.15s CPU      0.15s WALL (      70 calls)
     fftw         :    305.07s CPU    306.41s WALL ( 1944788 calls)
     interpolate  :      0.17s CPU      0.17s WALL (      36 calls)

     Parallel routines

     PWSCF        :   9m29.19s CPU   9m31.56s WALL


   This run was terminated on:   2: 1:30  20Sep2024            

=------------------------------------------------------------------------------=
   JOB DONE.
=------------------------------------------------------------------------------=
