
     Program PWSCF v.7.3.1 starts on 20Sep2024 at  1:46:30 

     This program is part of the open-source Quantum ESPRESSO suite
     for quantum simulation of materials; please cite
         "P. Giannozzi et al., J. Phys.:Condens. Matter 21 395502 (2009);
         "P. Giannozzi et al., J. Phys.:Condens. Matter 29 465901 (2017);
         "P. Giannozzi et al., J. Chem. Phys. 152 154105 (2020);
          URL http://www.quantum-espresso.org", 
     in publications or presentations arising from this work. More details at
     http://www.quantum-espresso.org/quote

     Parallel version (MPI), running on     1 processors

     MPI processes distributed on     1 nodes
     6491 MiB available memory on the printing compute node when the environment starts

     Waiting for input...
     Reading input from standard input

     Current dimensions of program PWSCF are:
     Max number of different atomic species (ntypx) = 10
     Max number of k-points (npk) =  40000
     Max angular momentum in pseudopotentials (lmaxx) =  4
     Message from routine volume:
     axis vectors are left-handed

     Subspace diagonalization in iterative solution of the eigenvalue problem:
     a serial algorithm will be used


     G-vector sticks info
     --------------------
     sticks:   dense  smooth     PW     G-vecs:    dense   smooth      PW
     Sum        1061     539    183                17255     6111    1237

     Using Slab Decomposition



     bravais-lattice index     =            0
     lattice parameter (alat)  =       8.1900  a.u.
     unit-cell volume          =     274.6766 (a.u.)^3
     number of atoms/cell      =            4
     number of atomic types    =            3
     number of electrons       =        44.00
     number of Kohn-Sham states=           30
     kinetic-energy cutoff     =      30.0000  Ry
     charge density cutoff     =     240.0000  Ry
     scf convergence threshold =      4.0E-10
     mixing beta               =       0.4000
     number of iterations used =            8  plain     mixing
     Exchange-correlation= SLA  PW   NOGX NOGC
                           (   1   4   0   0   0   0   0)

     celldm(1)=   8.190000  celldm(2)=   0.000000  celldm(3)=   0.000000
     celldm(4)=   0.000000  celldm(5)=   0.000000  celldm(6)=   0.000000

     crystal axes: (cart. coord. in units of alat)
               a(1) = (   0.500000   0.500000   1.000000 )  
               a(2) = (   0.500000   1.000000   0.500000 )  
               a(3) = (   1.000000   0.500000   0.500000 )  

     reciprocal axes: (cart. coord. in units 2 pi/alat)
               b(1) = ( -0.500000 -0.500000  1.500000 )  
               b(2) = ( -0.500000  1.500000 -0.500000 )  
               b(3) = (  1.500000 -0.500000 -0.500000 )  


     PseudoPot. # 1 for Fe read from file:
     ./pseudo/Fe.upf
     MD5 check sum: b1fb9d3cb1d156aba92c681262384fac
     Pseudo is Norm-conserving + core correction, Zval = 16.0
     Generated using ONCVPSP code by D. R. Hamann
     Using radial grid of 1408 points,  6 beta functions with: 
                l(1) =   0
                l(2) =   0
                l(3) =   1
                l(4) =   1
                l(5) =   2
                l(6) =   2

     PseudoPot. # 2 for Fe read from file:
     ./pseudo/Fe.upf
     MD5 check sum: b1fb9d3cb1d156aba92c681262384fac
     Pseudo is Norm-conserving + core correction, Zval = 16.0
     Generated using ONCVPSP code by D. R. Hamann
     Using radial grid of 1408 points,  6 beta functions with: 
                l(1) =   0
                l(2) =   0
                l(3) =   1
                l(4) =   1
                l(5) =   2
                l(6) =   2

     PseudoPot. # 3 for O  read from file:
     ./pseudo/O.upf
     MD5 check sum: 86ed389b6a5065e60c3f64c68a612de9
     Pseudo is Norm-conserving + core correction, Zval =  6.0
     Generated using ONCVPSP code by D. R. Hamann
     Using radial grid of  926 points,  5 beta functions with: 
                l(1) =   0
                l(2) =   0
                l(3) =   1
                l(4) =   1
                l(5) =   2

     atomic species   valence    mass     pseudopotential
     Fe1              16.00     1.00000     Fe( 1.00)
     Fe2              16.00     1.00000     Fe( 1.00)
     O                 6.00     1.00000     O ( 1.00)

     Starting magnetic structure 
     atomic species   magnetization
     Fe1             0.670
     Fe2            -0.670
     O               0.000

     No symmetry found


                                    s                        frac. trans.

      isym =  1     identity                                     

 cryst.   s( 1) = (     1          0          0      )
                  (     0          1          0      )
                  (     0          0          1      )

 cart.    s( 1) = (  1.0000000  0.0000000  0.0000000 )
                  (  0.0000000  1.0000000  0.0000000 )
                  (  0.0000000  0.0000000  1.0000000 )


   Cartesian axes

     site n.     atom                  positions (alat units)
         1        Fe1    tau(   1) = (   0.0000000   0.0000000   0.0000000  )
         2        Fe2    tau(   2) = (   1.0000000   1.0000000   1.0000000  )
         3        O      tau(   3) = (   0.5000000   0.5000000   0.5000000  )
         4        O      tau(   4) = (   1.5000000   1.5000000   1.5000000  )

   Crystallographic axes

     site n.     atom                  positions (cryst. coord.)
         1        Fe1    tau(   1) = (  0.0000000  0.0000000  0.0000000  )
         2        Fe2    tau(   2) = (  0.5000000  0.5000000  0.5000000  )
         3        O      tau(   3) = (  0.2500000  0.2500000  0.2500000  )
         4        O      tau(   4) = (  0.7500000  0.7500000  0.7500000  )

     number of k points=   125  Gaussian smearing, width (Ry)=  0.0100
                       cart. coord. in units 2pi/alat
        k(    1) = (   0.0000000   0.0000000   0.0000000), wk =   0.0080000
        k(    2) = (   0.3000000  -0.1000000  -0.1000000), wk =   0.0080000
        k(    3) = (   0.6000000  -0.2000000  -0.2000000), wk =   0.0080000
        k(    4) = (  -0.6000000   0.2000000   0.2000000), wk =   0.0080000
        k(    5) = (  -0.3000000   0.1000000   0.1000000), wk =   0.0080000
        k(    6) = (  -0.1000000   0.3000000  -0.1000000), wk =   0.0080000
        k(    7) = (   0.2000000   0.2000000  -0.2000000), wk =   0.0080000
        k(    8) = (   0.5000000   0.1000000  -0.3000000), wk =   0.0080000
        k(    9) = (  -0.7000000   0.5000000   0.1000000), wk =   0.0080000
        k(   10) = (  -0.4000000   0.4000000  -0.0000000), wk =   0.0080000
        k(   11) = (  -0.2000000   0.6000000  -0.2000000), wk =   0.0080000
        k(   12) = (   0.1000000   0.5000000  -0.3000000), wk =   0.0080000
        k(   13) = (   0.4000000   0.4000000  -0.4000000), wk =   0.0080000
        k(   14) = (  -0.8000000   0.8000000   0.0000000), wk =   0.0080000
        k(   15) = (  -0.5000000   0.7000000  -0.1000000), wk =   0.0080000
        k(   16) = (   0.2000000  -0.6000000   0.2000000), wk =   0.0080000
        k(   17) = (   0.5000000  -0.7000000   0.1000000), wk =   0.0080000
        k(   18) = (   0.8000000  -0.8000000   0.0000000), wk =   0.0080000
        k(   19) = (  -0.4000000  -0.4000000   0.4000000), wk =   0.0080000
        k(   20) = (  -0.1000000  -0.5000000   0.3000000), wk =   0.0080000
        k(   21) = (   0.1000000  -0.3000000   0.1000000), wk =   0.0080000
        k(   22) = (   0.4000000  -0.4000000  -0.0000000), wk =   0.0080000
        k(   23) = (   0.7000000  -0.5000000  -0.1000000), wk =   0.0080000
        k(   24) = (  -0.5000000  -0.1000000   0.3000000), wk =   0.0080000
        k(   25) = (  -0.2000000  -0.2000000   0.2000000), wk =   0.0080000
        k(   26) = (  -0.1000000  -0.1000000   0.3000000), wk =   0.0080000
        k(   27) = (   0.2000000  -0.2000000   0.2000000), wk =   0.0080000
        k(   28) = (   0.5000000  -0.3000000   0.1000000), wk =   0.0080000
        k(   29) = (  -0.7000000   0.1000000   0.5000000), wk =   0.0080000
        k(   30) = (  -0.4000000  -0.0000000   0.4000000), wk =   0.0080000
        k(   31) = (  -0.2000000   0.2000000   0.2000000), wk =   0.0080000
        k(   32) = (   0.1000000   0.1000000   0.1000000), wk =   0.0080000
        k(   33) = (   0.4000000   0.0000000   0.0000000), wk =   0.0080000
        k(   34) = (  -0.8000000   0.4000000   0.4000000), wk =   0.0080000
        k(   35) = (  -0.5000000   0.3000000   0.3000000), wk =   0.0080000
        k(   36) = (  -0.3000000   0.5000000   0.1000000), wk =   0.0080000
        k(   37) = (   0.0000000   0.4000000   0.0000000), wk =   0.0080000
        k(   38) = (   0.3000000   0.3000000  -0.1000000), wk =   0.0080000
        k(   39) = (  -0.9000000   0.7000000   0.3000000), wk =   0.0080000
        k(   40) = (  -0.6000000   0.6000000   0.2000000), wk =   0.0080000
        k(   41) = (   0.1000000  -0.7000000   0.5000000), wk =   0.0080000
        k(   42) = (   0.4000000  -0.8000000   0.4000000), wk =   0.0080000
        k(   43) = (   0.7000000  -0.9000000   0.3000000), wk =   0.0080000
        k(   44) = (  -0.5000000  -0.5000000   0.7000000), wk =   0.0080000
        k(   45) = (  -0.2000000  -0.6000000   0.6000000), wk =   0.0080000
        k(   46) = (  -0.0000000  -0.4000000   0.4000000), wk =   0.0080000
        k(   47) = (   0.3000000  -0.5000000   0.3000000), wk =   0.0080000
        k(   48) = (   0.6000000  -0.6000000   0.2000000), wk =   0.0080000
        k(   49) = (  -0.6000000  -0.2000000   0.6000000), wk =   0.0080000
        k(   50) = (  -0.3000000  -0.3000000   0.5000000), wk =   0.0080000
        k(   51) = (  -0.2000000  -0.2000000   0.6000000), wk =   0.0080000
        k(   52) = (   0.1000000  -0.3000000   0.5000000), wk =   0.0080000
        k(   53) = (   0.4000000  -0.4000000   0.4000000), wk =   0.0080000
        k(   54) = (  -0.8000000   0.0000000   0.8000000), wk =   0.0080000
        k(   55) = (  -0.5000000  -0.1000000   0.7000000), wk =   0.0080000
        k(   56) = (  -0.3000000   0.1000000   0.5000000), wk =   0.0080000
        k(   57) = (   0.0000000   0.0000000   0.4000000), wk =   0.0080000
        k(   58) = (   0.3000000  -0.1000000   0.3000000), wk =   0.0080000
        k(   59) = (  -0.9000000   0.3000000   0.7000000), wk =   0.0080000
        k(   60) = (  -0.6000000   0.2000000   0.6000000), wk =   0.0080000
        k(   61) = (  -0.4000000   0.4000000   0.4000000), wk =   0.0080000
        k(   62) = (  -0.1000000   0.3000000   0.3000000), wk =   0.0080000
        k(   63) = (   0.2000000   0.2000000   0.2000000), wk =   0.0080000
        k(   64) = (  -1.0000000   0.6000000   0.6000000), wk =   0.0080000
        k(   65) = (  -0.7000000   0.5000000   0.5000000), wk =   0.0080000
        k(   66) = (   0.0000000  -0.8000000   0.8000000), wk =   0.0080000
        k(   67) = (   0.3000000  -0.9000000   0.7000000), wk =   0.0080000
        k(   68) = (   0.6000000  -1.0000000   0.6000000), wk =   0.0080000
        k(   69) = (  -0.6000000  -0.6000000   1.0000000), wk =   0.0080000
        k(   70) = (  -0.3000000  -0.7000000   0.9000000), wk =   0.0080000
        k(   71) = (  -0.1000000  -0.5000000   0.7000000), wk =   0.0080000
        k(   72) = (   0.2000000  -0.6000000   0.6000000), wk =   0.0080000
        k(   73) = (   0.5000000  -0.7000000   0.5000000), wk =   0.0080000
        k(   74) = (  -0.7000000  -0.3000000   0.9000000), wk =   0.0080000
        k(   75) = (  -0.4000000  -0.4000000   0.8000000), wk =   0.0080000
        k(   76) = (   0.2000000   0.2000000  -0.6000000), wk =   0.0080000
        k(   77) = (   0.5000000   0.1000000  -0.7000000), wk =   0.0080000
        k(   78) = (   0.8000000   0.0000000  -0.8000000), wk =   0.0080000
        k(   79) = (  -0.4000000   0.4000000  -0.4000000), wk =   0.0080000
        k(   80) = (  -0.1000000   0.3000000  -0.5000000), wk =   0.0080000
        k(   81) = (   0.1000000   0.5000000  -0.7000000), wk =   0.0080000
        k(   82) = (   0.4000000   0.4000000  -0.8000000), wk =   0.0080000
        k(   83) = (   0.7000000   0.3000000  -0.9000000), wk =   0.0080000
        k(   84) = (  -0.5000000   0.7000000  -0.5000000), wk =   0.0080000
        k(   85) = (  -0.2000000   0.6000000  -0.6000000), wk =   0.0080000
        k(   86) = (   0.0000000   0.8000000  -0.8000000), wk =   0.0080000
        k(   87) = (   0.3000000   0.7000000  -0.9000000), wk =   0.0080000
        k(   88) = (   0.6000000   0.6000000  -1.0000000), wk =   0.0080000
        k(   89) = (  -0.6000000   1.0000000  -0.6000000), wk =   0.0080000
        k(   90) = (  -0.3000000   0.9000000  -0.7000000), wk =   0.0080000
        k(   91) = (   0.4000000  -0.4000000  -0.4000000), wk =   0.0080000
        k(   92) = (   0.7000000  -0.5000000  -0.5000000), wk =   0.0080000
        k(   93) = (   1.0000000  -0.6000000  -0.6000000), wk =   0.0080000
        k(   94) = (  -0.2000000  -0.2000000  -0.2000000), wk =   0.0080000
        k(   95) = (   0.1000000  -0.3000000  -0.3000000), wk =   0.0080000
        k(   96) = (   0.3000000  -0.1000000  -0.5000000), wk =   0.0080000
        k(   97) = (   0.6000000  -0.2000000  -0.6000000), wk =   0.0080000
        k(   98) = (   0.9000000  -0.3000000  -0.7000000), wk =   0.0080000
        k(   99) = (  -0.3000000   0.1000000  -0.3000000), wk =   0.0080000
        k(  100) = (   0.0000000   0.0000000  -0.4000000), wk =   0.0080000
        k(  101) = (   0.1000000   0.1000000  -0.3000000), wk =   0.0080000
        k(  102) = (   0.4000000  -0.0000000  -0.4000000), wk =   0.0080000
        k(  103) = (   0.7000000  -0.1000000  -0.5000000), wk =   0.0080000
        k(  104) = (  -0.5000000   0.3000000  -0.1000000), wk =   0.0080000
        k(  105) = (  -0.2000000   0.2000000  -0.2000000), wk =   0.0080000
        k(  106) = (  -0.0000000   0.4000000  -0.4000000), wk =   0.0080000
        k(  107) = (   0.3000000   0.3000000  -0.5000000), wk =   0.0080000
        k(  108) = (   0.6000000   0.2000000  -0.6000000), wk =   0.0080000
        k(  109) = (  -0.6000000   0.6000000  -0.2000000), wk =   0.0080000
        k(  110) = (  -0.3000000   0.5000000  -0.3000000), wk =   0.0080000
        k(  111) = (  -0.1000000   0.7000000  -0.5000000), wk =   0.0080000
        k(  112) = (   0.2000000   0.6000000  -0.6000000), wk =   0.0080000
        k(  113) = (   0.5000000   0.5000000  -0.7000000), wk =   0.0080000
        k(  114) = (  -0.7000000   0.9000000  -0.3000000), wk =   0.0080000
        k(  115) = (  -0.4000000   0.8000000  -0.4000000), wk =   0.0080000
        k(  116) = (   0.3000000  -0.5000000  -0.1000000), wk =   0.0080000
        k(  117) = (   0.6000000  -0.6000000  -0.2000000), wk =   0.0080000
        k(  118) = (   0.9000000  -0.7000000  -0.3000000), wk =   0.0080000
        k(  119) = (  -0.3000000  -0.3000000   0.1000000), wk =   0.0080000
        k(  120) = (   0.0000000  -0.4000000   0.0000000), wk =   0.0080000
        k(  121) = (   0.2000000  -0.2000000  -0.2000000), wk =   0.0080000
        k(  122) = (   0.5000000  -0.3000000  -0.3000000), wk =   0.0080000
        k(  123) = (   0.8000000  -0.4000000  -0.4000000), wk =   0.0080000
        k(  124) = (  -0.4000000   0.0000000   0.0000000), wk =   0.0080000
        k(  125) = (  -0.1000000  -0.1000000  -0.1000000), wk =   0.0080000

                       cryst. coord.
        k(    1) = (   0.0000000   0.0000000   0.0000000), wk =   0.0080000
        k(    2) = (   0.0000000   0.0000000   0.2000000), wk =   0.0080000
        k(    3) = (   0.0000000   0.0000000   0.4000000), wk =   0.0080000
        k(    4) = (  -0.0000000  -0.0000000  -0.4000000), wk =   0.0080000
        k(    5) = (   0.0000000   0.0000000  -0.2000000), wk =   0.0080000
        k(    6) = (   0.0000000   0.2000000   0.0000000), wk =   0.0080000
        k(    7) = (   0.0000000   0.2000000   0.2000000), wk =   0.0080000
        k(    8) = (   0.0000000   0.2000000   0.4000000), wk =   0.0080000
        k(    9) = (  -0.0000000   0.2000000  -0.4000000), wk =   0.0080000
        k(   10) = (   0.0000000   0.2000000  -0.2000000), wk =   0.0080000
        k(   11) = (   0.0000000   0.4000000   0.0000000), wk =   0.0080000
        k(   12) = (   0.0000000   0.4000000   0.2000000), wk =   0.0080000
        k(   13) = (   0.0000000   0.4000000   0.4000000), wk =   0.0080000
        k(   14) = (   0.0000000   0.4000000  -0.4000000), wk =   0.0080000
        k(   15) = (   0.0000000   0.4000000  -0.2000000), wk =   0.0080000
        k(   16) = (  -0.0000000  -0.4000000  -0.0000000), wk =   0.0080000
        k(   17) = (  -0.0000000  -0.4000000   0.2000000), wk =   0.0080000
        k(   18) = (   0.0000000  -0.4000000   0.4000000), wk =   0.0080000
        k(   19) = (  -0.0000000  -0.4000000  -0.4000000), wk =   0.0080000
        k(   20) = (  -0.0000000  -0.4000000  -0.2000000), wk =   0.0080000
        k(   21) = (   0.0000000  -0.2000000   0.0000000), wk =   0.0080000
        k(   22) = (   0.0000000  -0.2000000   0.2000000), wk =   0.0080000
        k(   23) = (   0.0000000  -0.2000000   0.4000000), wk =   0.0080000
        k(   24) = (  -0.0000000  -0.2000000  -0.4000000), wk =   0.0080000
        k(   25) = (   0.0000000  -0.2000000  -0.2000000), wk =   0.0080000
        k(   26) = (   0.2000000   0.0000000   0.0000000), wk =   0.0080000
        k(   27) = (   0.2000000   0.0000000   0.2000000), wk =   0.0080000
        k(   28) = (   0.2000000   0.0000000   0.4000000), wk =   0.0080000
        k(   29) = (   0.2000000   0.0000000  -0.4000000), wk =   0.0080000
        k(   30) = (   0.2000000   0.0000000  -0.2000000), wk =   0.0080000
        k(   31) = (   0.2000000   0.2000000   0.0000000), wk =   0.0080000
        k(   32) = (   0.2000000   0.2000000   0.2000000), wk =   0.0080000
        k(   33) = (   0.2000000   0.2000000   0.4000000), wk =   0.0080000
        k(   34) = (   0.2000000   0.2000000  -0.4000000), wk =   0.0080000
        k(   35) = (   0.2000000   0.2000000  -0.2000000), wk =   0.0080000
        k(   36) = (   0.2000000   0.4000000   0.0000000), wk =   0.0080000
        k(   37) = (   0.2000000   0.4000000   0.2000000), wk =   0.0080000
        k(   38) = (   0.2000000   0.4000000   0.4000000), wk =   0.0080000
        k(   39) = (   0.2000000   0.4000000  -0.4000000), wk =   0.0080000
        k(   40) = (   0.2000000   0.4000000  -0.2000000), wk =   0.0080000
        k(   41) = (   0.2000000  -0.4000000   0.0000000), wk =   0.0080000
        k(   42) = (   0.2000000  -0.4000000   0.2000000), wk =   0.0080000
        k(   43) = (   0.2000000  -0.4000000   0.4000000), wk =   0.0080000
        k(   44) = (   0.2000000  -0.4000000  -0.4000000), wk =   0.0080000
        k(   45) = (   0.2000000  -0.4000000  -0.2000000), wk =   0.0080000
        k(   46) = (   0.2000000  -0.2000000   0.0000000), wk =   0.0080000
        k(   47) = (   0.2000000  -0.2000000   0.2000000), wk =   0.0080000
        k(   48) = (   0.2000000  -0.2000000   0.4000000), wk =   0.0080000
        k(   49) = (   0.2000000  -0.2000000  -0.4000000), wk =   0.0080000
        k(   50) = (   0.2000000  -0.2000000  -0.2000000), wk =   0.0080000
        k(   51) = (   0.4000000   0.0000000   0.0000000), wk =   0.0080000
        k(   52) = (   0.4000000   0.0000000   0.2000000), wk =   0.0080000
        k(   53) = (   0.4000000   0.0000000   0.4000000), wk =   0.0080000
        k(   54) = (   0.4000000   0.0000000  -0.4000000), wk =   0.0080000
        k(   55) = (   0.4000000   0.0000000  -0.2000000), wk =   0.0080000
        k(   56) = (   0.4000000   0.2000000   0.0000000), wk =   0.0080000
        k(   57) = (   0.4000000   0.2000000   0.2000000), wk =   0.0080000
        k(   58) = (   0.4000000   0.2000000   0.4000000), wk =   0.0080000
        k(   59) = (   0.4000000   0.2000000  -0.4000000), wk =   0.0080000
        k(   60) = (   0.4000000   0.2000000  -0.2000000), wk =   0.0080000
        k(   61) = (   0.4000000   0.4000000   0.0000000), wk =   0.0080000
        k(   62) = (   0.4000000   0.4000000   0.2000000), wk =   0.0080000
        k(   63) = (   0.4000000   0.4000000   0.4000000), wk =   0.0080000
        k(   64) = (   0.4000000   0.4000000  -0.4000000), wk =   0.0080000
        k(   65) = (   0.4000000   0.4000000  -0.2000000), wk =   0.0080000
        k(   66) = (   0.4000000  -0.4000000   0.0000000), wk =   0.0080000
        k(   67) = (   0.4000000  -0.4000000   0.2000000), wk =   0.0080000
        k(   68) = (   0.4000000  -0.4000000   0.4000000), wk =   0.0080000
        k(   69) = (   0.4000000  -0.4000000  -0.4000000), wk =   0.0080000
        k(   70) = (   0.4000000  -0.4000000  -0.2000000), wk =   0.0080000
        k(   71) = (   0.4000000  -0.2000000   0.0000000), wk =   0.0080000
        k(   72) = (   0.4000000  -0.2000000   0.2000000), wk =   0.0080000
        k(   73) = (   0.4000000  -0.2000000   0.4000000), wk =   0.0080000
        k(   74) = (   0.4000000  -0.2000000  -0.4000000), wk =   0.0080000
        k(   75) = (   0.4000000  -0.2000000  -0.2000000), wk =   0.0080000
        k(   76) = (  -0.4000000   0.0000000   0.0000000), wk =   0.0080000
        k(   77) = (  -0.4000000  -0.0000000   0.2000000), wk =   0.0080000
        k(   78) = (  -0.4000000   0.0000000   0.4000000), wk =   0.0080000
        k(   79) = (  -0.4000000  -0.0000000  -0.4000000), wk =   0.0080000
        k(   80) = (  -0.4000000  -0.0000000  -0.2000000), wk =   0.0080000
        k(   81) = (  -0.4000000   0.2000000  -0.0000000), wk =   0.0080000
        k(   82) = (  -0.4000000   0.2000000   0.2000000), wk =   0.0080000
        k(   83) = (  -0.4000000   0.2000000   0.4000000), wk =   0.0080000
        k(   84) = (  -0.4000000   0.2000000  -0.4000000), wk =   0.0080000
        k(   85) = (  -0.4000000   0.2000000  -0.2000000), wk =   0.0080000
        k(   86) = (  -0.4000000   0.4000000   0.0000000), wk =   0.0080000
        k(   87) = (  -0.4000000   0.4000000   0.2000000), wk =   0.0080000
        k(   88) = (  -0.4000000   0.4000000   0.4000000), wk =   0.0080000
        k(   89) = (  -0.4000000   0.4000000  -0.4000000), wk =   0.0080000
        k(   90) = (  -0.4000000   0.4000000  -0.2000000), wk =   0.0080000
        k(   91) = (  -0.4000000  -0.4000000  -0.0000000), wk =   0.0080000
        k(   92) = (  -0.4000000  -0.4000000   0.2000000), wk =   0.0080000
        k(   93) = (  -0.4000000  -0.4000000   0.4000000), wk =   0.0080000
        k(   94) = (  -0.4000000  -0.4000000  -0.4000000), wk =   0.0080000
        k(   95) = (  -0.4000000  -0.4000000  -0.2000000), wk =   0.0080000
        k(   96) = (  -0.4000000  -0.2000000  -0.0000000), wk =   0.0080000
        k(   97) = (  -0.4000000  -0.2000000   0.2000000), wk =   0.0080000
        k(   98) = (  -0.4000000  -0.2000000   0.4000000), wk =   0.0080000
        k(   99) = (  -0.4000000  -0.2000000  -0.4000000), wk =   0.0080000
        k(  100) = (  -0.4000000  -0.2000000  -0.2000000), wk =   0.0080000
        k(  101) = (  -0.2000000   0.0000000   0.0000000), wk =   0.0080000
        k(  102) = (  -0.2000000   0.0000000   0.2000000), wk =   0.0080000
        k(  103) = (  -0.2000000   0.0000000   0.4000000), wk =   0.0080000
        k(  104) = (  -0.2000000  -0.0000000  -0.4000000), wk =   0.0080000
        k(  105) = (  -0.2000000   0.0000000  -0.2000000), wk =   0.0080000
        k(  106) = (  -0.2000000   0.2000000   0.0000000), wk =   0.0080000
        k(  107) = (  -0.2000000   0.2000000   0.2000000), wk =   0.0080000
        k(  108) = (  -0.2000000   0.2000000   0.4000000), wk =   0.0080000
        k(  109) = (  -0.2000000   0.2000000  -0.4000000), wk =   0.0080000
        k(  110) = (  -0.2000000   0.2000000  -0.2000000), wk =   0.0080000
        k(  111) = (  -0.2000000   0.4000000   0.0000000), wk =   0.0080000
        k(  112) = (  -0.2000000   0.4000000   0.2000000), wk =   0.0080000
        k(  113) = (  -0.2000000   0.4000000   0.4000000), wk =   0.0080000
        k(  114) = (  -0.2000000   0.4000000  -0.4000000), wk =   0.0080000
        k(  115) = (  -0.2000000   0.4000000  -0.2000000), wk =   0.0080000
        k(  116) = (  -0.2000000  -0.4000000  -0.0000000), wk =   0.0080000
        k(  117) = (  -0.2000000  -0.4000000   0.2000000), wk =   0.0080000
        k(  118) = (  -0.2000000  -0.4000000   0.4000000), wk =   0.0080000
        k(  119) = (  -0.2000000  -0.4000000  -0.4000000), wk =   0.0080000
        k(  120) = (  -0.2000000  -0.4000000  -0.2000000), wk =   0.0080000
        k(  121) = (  -0.2000000  -0.2000000   0.0000000), wk =   0.0080000
        k(  122) = (  -0.2000000  -0.2000000   0.2000000), wk =   0.0080000
        k(  123) = (  -0.2000000  -0.2000000   0.4000000), wk =   0.0080000
        k(  124) = (  -0.2000000  -0.2000000  -0.4000000), wk =   0.0080000
        k(  125) = (  -0.2000000  -0.2000000  -0.2000000), wk =   0.0080000

     Dense  grid:    17255 G-vectors     FFT dimensions: (  50,  50,  50)

     Smooth grid:     6111 G-vectors     FFT dimensions: (  36,  36,  36)

     Dynamical RAM for                 wfc:       0.35 MB

     Dynamical RAM for     wfc (w. buffer):      87.55 MB

     Dynamical RAM for           str. fact:       0.79 MB

     Dynamical RAM for           local pot:       0.00 MB

     Dynamical RAM for          nlocal pot:       0.72 MB

     Dynamical RAM for                qrad:       3.73 MB

     Dynamical RAM for          rho,v,vnew:       7.30 MB

     Dynamical RAM for               rhoin:       2.43 MB

     Dynamical RAM for            rho*nmix:       8.43 MB

     Dynamical RAM for           G-vectors:       1.03 MB

     Dynamical RAM for          h,s,v(r/c):       0.16 MB

     Dynamical RAM for          <psi|beta>:       0.03 MB

     Dynamical RAM for                 psi:       0.70 MB

     Dynamical RAM for                hpsi:       0.70 MB

     Dynamical RAM for      wfcinit/wfcrot:       0.72 MB

     Estimated static dynamical RAM per process >     110.34 MB

     Estimated max dynamical RAM per process >     120.35 MB

     Check: negative core charge=   -0.000037
     Generating pointlists ...
     new r_m :   0.2063 (alat units)  1.6892 (a.u.) for type    1
     new r_m :   0.2063 (alat units)  1.6892 (a.u.) for type    2
     new r_m :   0.2063 (alat units)  1.6892 (a.u.) for type    3

     Initial potential from superposition of free atoms

     starting charge      43.9994, renormalised to      44.0000
     Starting wfcs are   28 randomized atomic wfcs +    2 random wfcs

     total cpu time spent up to now is        4.5 secs

     Self-consistent Calculation

     iteration #  1     ecut=    30.00 Ry     beta= 0.40
     Davidson diagonalization with overlap

---- Real-time Memory Report at c_bands before calling an iterative solver
           135 MiB given to the printing process from OS
             0 MiB allocation reported by mallinfo(arena+hblkhd)
          6368 MiB available memory on the node where the printing process lives
------------------
     ethr =  1.00E-02,  avg # of iterations =  4.8

     total cpu time spent up to now is       20.8 secs

     total energy              =    -549.72249487 Ry
     estimated scf accuracy    <      12.60210389 Ry

     total magnetization       =     0.00 Bohr mag/cell
     absolute magnetization    =     8.73 Bohr mag/cell

     iteration #  2     ecut=    30.00 Ry     beta= 0.40
     Davidson diagonalization with overlap

---- Real-time Memory Report at c_bands before calling an iterative solver
           144 MiB given to the printing process from OS
             0 MiB allocation reported by mallinfo(arena+hblkhd)
          6364 MiB available memory on the node where the printing process lives
------------------
     ethr =  1.00E-02,  avg # of iterations =  2.7

     total cpu time spent up to now is       34.9 secs

     total energy              =    -551.50532327 Ry
     estimated scf accuracy    <       3.22390331 Ry

     total magnetization       =    -0.01 Bohr mag/cell
     absolute magnetization    =     6.85 Bohr mag/cell

     iteration #  3     ecut=    30.00 Ry     beta= 0.40
     Davidson diagonalization with overlap

---- Real-time Memory Report at c_bands before calling an iterative solver
           144 MiB given to the printing process from OS
             0 MiB allocation reported by mallinfo(arena+hblkhd)
          6368 MiB available memory on the node where the printing process lives
------------------
     ethr =  7.33E-03,  avg # of iterations =  1.9

     total cpu time spent up to now is       45.7 secs

     total energy              =    -551.98040715 Ry
     estimated scf accuracy    <       0.86840394 Ry

     total magnetization       =     0.04 Bohr mag/cell
     absolute magnetization    =     7.80 Bohr mag/cell

     iteration #  4     ecut=    30.00 Ry     beta= 0.40
     Davidson diagonalization with overlap

---- Real-time Memory Report at c_bands before calling an iterative solver
           145 MiB given to the printing process from OS
             0 MiB allocation reported by mallinfo(arena+hblkhd)
          6362 MiB available memory on the node where the printing process lives
------------------
     ethr =  1.97E-03,  avg # of iterations =  1.8

     total cpu time spent up to now is       56.1 secs

     total energy              =    -552.06716790 Ry
     estimated scf accuracy    <       0.15755637 Ry

     total magnetization       =    -0.28 Bohr mag/cell
     absolute magnetization    =     7.00 Bohr mag/cell

     iteration #  5     ecut=    30.00 Ry     beta= 0.40
     Davidson diagonalization with overlap

---- Real-time Memory Report at c_bands before calling an iterative solver
           145 MiB given to the printing process from OS
             0 MiB allocation reported by mallinfo(arena+hblkhd)
          6363 MiB available memory on the node where the printing process lives
------------------
     ethr =  3.58E-04,  avg # of iterations =  2.1

     total cpu time spent up to now is       67.5 secs

     total energy              =    -551.97737536 Ry
     estimated scf accuracy    <       2.84500807 Ry

     total magnetization       =     1.95 Bohr mag/cell
     absolute magnetization    =     5.94 Bohr mag/cell

     iteration #  6     ecut=    30.00 Ry     beta= 0.40
     Davidson diagonalization with overlap

---- Real-time Memory Report at c_bands before calling an iterative solver
           145 MiB given to the printing process from OS
             0 MiB allocation reported by mallinfo(arena+hblkhd)
          6360 MiB available memory on the node where the printing process lives
------------------
     ethr =  3.58E-04,  avg # of iterations =  2.0

     total cpu time spent up to now is       78.3 secs

     total energy              =    -552.09709517 Ry
     estimated scf accuracy    <       0.00468740 Ry

     total magnetization       =    -0.07 Bohr mag/cell
     absolute magnetization    =     6.75 Bohr mag/cell

     iteration #  7     ecut=    30.00 Ry     beta= 0.40
     Davidson diagonalization with overlap

---- Real-time Memory Report at c_bands before calling an iterative solver
           146 MiB given to the printing process from OS
             0 MiB allocation reported by mallinfo(arena+hblkhd)
          6357 MiB available memory on the node where the printing process lives
------------------
     ethr =  1.07E-05,  avg # of iterations =  3.1

     total cpu time spent up to now is       90.3 secs

     total energy              =    -552.09820620 Ry
     estimated scf accuracy    <       0.00197282 Ry

     total magnetization       =     0.02 Bohr mag/cell
     absolute magnetization    =     6.68 Bohr mag/cell

     iteration #  8     ecut=    30.00 Ry     beta= 0.40
     Davidson diagonalization with overlap

---- Real-time Memory Report at c_bands before calling an iterative solver
           146 MiB given to the printing process from OS
             0 MiB allocation reported by mallinfo(arena+hblkhd)
          6354 MiB available memory on the node where the printing process lives
------------------
     ethr =  4.48E-06,  avg # of iterations =  2.2

     total cpu time spent up to now is      101.1 secs

     total energy              =    -552.09841803 Ry
     estimated scf accuracy    <       0.00038223 Ry

     total magnetization       =     0.02 Bohr mag/cell
     absolute magnetization    =     6.65 Bohr mag/cell

     iteration #  9     ecut=    30.00 Ry     beta= 0.40
     Davidson diagonalization with overlap

---- Real-time Memory Report at c_bands before calling an iterative solver
           146 MiB given to the printing process from OS
             0 MiB allocation reported by mallinfo(arena+hblkhd)
          6356 MiB available memory on the node where the printing process lives
------------------
     ethr =  8.69E-07,  avg # of iterations =  1.1

     total cpu time spent up to now is      111.3 secs

     total energy              =    -552.09844046 Ry
     estimated scf accuracy    <       0.00005765 Ry

     total magnetization       =     0.00 Bohr mag/cell
     absolute magnetization    =     6.64 Bohr mag/cell

     iteration # 10     ecut=    30.00 Ry     beta= 0.40
     Davidson diagonalization with overlap

---- Real-time Memory Report at c_bands before calling an iterative solver
           147 MiB given to the printing process from OS
             0 MiB allocation reported by mallinfo(arena+hblkhd)
          6354 MiB available memory on the node where the printing process lives
------------------
     ethr =  1.31E-07,  avg # of iterations =  1.8

     total cpu time spent up to now is      121.9 secs

     total energy              =    -552.09844711 Ry
     estimated scf accuracy    <       0.00000655 Ry

     total magnetization       =     0.00 Bohr mag/cell
     absolute magnetization    =     6.63 Bohr mag/cell

     iteration # 11     ecut=    30.00 Ry     beta= 0.40
     Davidson diagonalization with overlap

---- Real-time Memory Report at c_bands before calling an iterative solver
           147 MiB given to the printing process from OS
             0 MiB allocation reported by mallinfo(arena+hblkhd)
          6353 MiB available memory on the node where the printing process lives
------------------
     ethr =  1.49E-08,  avg # of iterations =  2.0

     total cpu time spent up to now is      133.4 secs

     total energy              =    -552.09844874 Ry
     estimated scf accuracy    <       0.00000048 Ry

     total magnetization       =    -0.00 Bohr mag/cell
     absolute magnetization    =     6.63 Bohr mag/cell

     iteration # 12     ecut=    30.00 Ry     beta= 0.40
     Davidson diagonalization with overlap

---- Real-time Memory Report at c_bands before calling an iterative solver
           147 MiB given to the printing process from OS
             0 MiB allocation reported by mallinfo(arena+hblkhd)
          6353 MiB available memory on the node where the printing process lives
------------------
     ethr =  1.08E-09,  avg # of iterations =  1.6

     total cpu time spent up to now is      143.6 secs

     total energy              =    -552.09844885 Ry
     estimated scf accuracy    <       0.00000011 Ry

     total magnetization       =     0.00 Bohr mag/cell
     absolute magnetization    =     6.63 Bohr mag/cell

     iteration # 13     ecut=    30.00 Ry     beta= 0.40
     Davidson diagonalization with overlap

---- Real-time Memory Report at c_bands before calling an iterative solver
           147 MiB given to the printing process from OS
             0 MiB allocation reported by mallinfo(arena+hblkhd)
          6350 MiB available memory on the node where the printing process lives
------------------
     ethr =  2.42E-10,  avg # of iterations =  1.6

     total cpu time spent up to now is      154.3 secs

     total energy              =    -552.09844888 Ry
     estimated scf accuracy    <          7.8E-09 Ry

     total magnetization       =     0.00 Bohr mag/cell
     absolute magnetization    =     6.63 Bohr mag/cell

     iteration # 14     ecut=    30.00 Ry     beta= 0.40
     Davidson diagonalization with overlap

---- Real-time Memory Report at c_bands before calling an iterative solver
           147 MiB given to the printing process from OS
             0 MiB allocation reported by mallinfo(arena+hblkhd)
          6352 MiB available memory on the node where the printing process lives
------------------
     ethr =  1.77E-11,  avg # of iterations =  2.0

     total cpu time spent up to now is      165.4 secs

     total energy              =    -552.09844888 Ry
     estimated scf accuracy    <          2.0E-09 Ry

     total magnetization       =     0.00 Bohr mag/cell
     absolute magnetization    =     6.63 Bohr mag/cell

     iteration # 15     ecut=    30.00 Ry     beta= 0.40
     Davidson diagonalization with overlap

---- Real-time Memory Report at c_bands before calling an iterative solver
           147 MiB given to the printing process from OS
             0 MiB allocation reported by mallinfo(arena+hblkhd)
          6351 MiB available memory on the node where the printing process lives
------------------
     ethr =  4.63E-12,  avg # of iterations =  1.5

     Magnetic moment per site  (integrated on atomic sphere of radius R)
     atom   1 (R=0.206)  charge= 13.2033  magn=  2.9062
     atom   2 (R=0.206)  charge= 13.2033  magn= -2.9062
     atom   3 (R=0.206)  charge=  5.6732  magn= -0.0000
     atom   4 (R=0.206)  charge=  5.6732  magn= -0.0000

     total cpu time spent up to now is      176.0 secs

     End of self-consistent calculation

 ------ SPIN UP ------------


          k = 0.0000 0.0000 0.0000 (   731 PWs)   bands (ev):

   -90.6377 -88.2937 -50.4135 -50.0883 -50.0883 -46.7721 -46.7509 -46.7509
    -6.9949  -5.9684   5.6299   8.6811   8.6811  11.4969  11.5065  11.5065
    12.8042  12.8042  13.3024  13.4514  14.6602  14.6602  15.6311  15.6311
    15.9200  17.5055  17.5055  18.2408  22.7878  26.5432

     occupation numbers 
     1.0000   1.0000   1.0000   1.0000   1.0000   1.0000   1.0000   1.0000
     1.0000   1.0000   1.0000   1.0000   1.0000   1.0000   1.0000   1.0000
     1.0000   1.0000   1.0000   1.0000   1.0000   1.0000   0.0068   0.0068
     0.0000   0.0000   0.0000   0.0000   0.0000   0.0000

          k = 0.3000-0.1000-0.1000 (   754 PWs)   bands (ev):

   -90.6542 -88.3100 -50.4856 -50.2841 -50.2499 -47.6223 -47.4270 -47.3835
    -6.7160  -5.9273   6.3837   8.4366   8.7088   8.8392  10.3150  10.4448
    12.5450  12.9610  13.1428  13.8700  14.1616  15.0440  15.6039  15.6463
    16.3200  17.3605  17.4076  20.7493  22.0621  25.3313

     occupation numbers 
     1.0000   1.0000   1.0000   1.0000   1.0000   1.0000   1.0000   1.0000
     1.0000   1.0000   1.0000   1.0000   1.0000   1.0000   1.0000   1.0000
     1.0000   1.0000   1.0000   1.0000   1.0000   0.9999   0.0144   0.0043
     0.0000   0.0000   0.0000   0.0000   0.0000   0.0000

          k = 0.6000-0.2000-0.2000 (   768 PWs)   bands (ev):

   -90.6663 -88.3211 -50.8699 -50.5454 -50.3052 -48.0342 -47.7274 -47.4596
    -6.1493  -5.9034   6.8457   7.1745   7.9040   8.9781   8.9925   9.6953
    12.1861  12.7670  13.0687  14.3025  14.3905  14.6685  15.7829  15.8656
    16.6798  17.0983  19.6834  20.6790  22.9457  23.6015

     occupation numbers 
     1.0000   1.0000   1.0000   1.0000   1.0000   1.0000   1.0000   1.0000
     1.0000   1.0000   1.0000   1.0000   1.0000   1.0000   1.0000   1.0000
     1.0000   1.0000   1.0000   1.0000   1.0000   1.0000   0.0000   0.0000
     0.0000   0.0000   0.0000   0.0000   0.0000   0.0000

          k =-0.6000 0.2000 0.2000 (   768 PWs)   bands (ev):

   -90.6663 -88.3211 -50.8699 -50.5454 -50.3052 -48.0342 -47.7274 -47.4596
    -6.1493  -5.9034   6.8457   7.1745   7.9040   8.9781   8.9925   9.6953
    12.1861  12.7670  13.0687  14.3025  14.3905  14.6685  15.7829  15.8656
    16.6798  17.0983  19.6834  20.6790  22.9457  23.6015

     occupation numbers 
     1.0000   1.0000   1.0000   1.0000   1.0000   1.0000   1.0000   1.0000
     1.0000   1.0000   1.0000   1.0000   1.0000   1.0000   1.0000   1.0000
     1.0000   1.0000   1.0000   1.0000   1.0000   1.0000   0.0000   0.0000
     0.0000   0.0000   0.0000   0.0000   0.0000   0.0000

          k =-0.3000 0.1000 0.1000 (   754 PWs)   bands (ev):

   -90.6542 -88.3100 -50.4856 -50.2841 -50.2499 -47.6223 -47.4270 -47.3835
    -6.7160  -5.9273   6.3837   8.4366   8.7088   8.8392  10.3150  10.4448
    12.5450  12.9610  13.1428  13.8700  14.1616  15.0440  15.6039  15.6463
    16.3200  17.3605  17.4076  20.7493  22.0621  25.3313

     occupation numbers 
     1.0000   1.0000   1.0000   1.0000   1.0000   1.0000   1.0000   1.0000
     1.0000   1.0000   1.0000   1.0000   1.0000   1.0000   1.0000   1.0000
     1.0000   1.0000   1.0000   1.0000   1.0000   0.9999   0.0144   0.0043
     0.0000   0.0000   0.0000   0.0000   0.0000   0.0000

          k =-0.1000 0.3000-0.1000 (   754 PWs)   bands (ev):

   -90.6542 -88.3100 -50.4856 -50.2841 -50.2499 -47.6223 -47.4270 -47.3835
    -6.7160  -5.9273   6.3837   8.4366   8.7088   8.8392  10.3150  10.4448
    12.5450  12.9610  13.1428  13.8700  14.1616  15.0440  15.6039  15.6463
    16.3200  17.3605  17.4076  20.7493  22.0621  25.3313

     occupation numbers 
     1.0000   1.0000   1.0000   1.0000   1.0000   1.0000   1.0000   1.0000
     1.0000   1.0000   1.0000   1.0000   1.0000   1.0000   1.0000   1.0000
     1.0000   1.0000   1.0000   1.0000   1.0000   0.9999   0.0144   0.0043
     0.0000   0.0000   0.0000   0.0000   0.0000   0.0000

          k = 0.2000 0.2000-0.2000 (   751 PWs)   bands (ev):

   -90.6518 -88.3078 -50.3935 -50.3262 -50.1773 -47.4666 -47.4306 -47.3040
    -6.6832  -5.9619   6.4604   8.4431   8.5895   9.0760  10.2617  10.2772
    12.6437  12.8664  13.1308  14.3402  14.4895  15.0828  15.7396  15.7657
    16.4477  17.0039  17.1098  20.2905  22.4477  25.6614

     occupation numbers 
     1.0000   1.0000   1.0000   1.0000   1.0000   1.0000   1.0000   1.0000
     1.0000   1.0000   1.0000   1.0000   1.0000   1.0000   1.0000   1.0000
     1.0000   1.0000   1.0000   1.0000   1.0000   0.9994   0.0002   0.0001
     0.0000   0.0000   0.0000   0.0000   0.0000   0.0000

          k = 0.5000 0.1000-0.3000 (   764 PWs)   bands (ev):

   -90.6631 -88.3183 -50.7226 -50.4428 -50.3527 -47.8747 -47.6003 -47.5109
    -6.2399  -5.9336   7.0779   7.1674   8.3930   8.6326   9.1368   9.4645
    12.5873  12.7863  12.9187  14.0285  14.5203  15.2658  15.5436  15.9376
    16.4780  17.2921  19.2296  20.7988  23.2148  24.5319

     occupation numbers 
     1.0000   1.0000   1.0000   1.0000   1.0000   1.0000   1.0000   1.0000
     1.0000   1.0000   1.0000   1.0000   1.0000   1.0000   1.0000   1.0000
     1.0000   1.0000   1.0000   1.0000   1.0000   0.9080   0.0595   0.0000
     0.0000   0.0000   0.0000   0.0000   0.0000   0.0000

          k =-0.7000 0.5000 0.1000 (   768 PWs)   bands (ev):

   -90.6659 -88.3207 -50.7706 -50.5792 -50.3965 -47.9326 -47.7422 -47.5777
    -5.9416  -5.9306   6.7861   7.2008   8.2029   8.4376   8.6764   8.8091
    12.6298  12.9682  13.1302  14.0990  14.4748  15.1923  15.8978  15.9239
    16.7220  17.3508  20.6991  21.4959  22.1413  23.2226

     occupation numbers 
     1.0000   1.0000   1.0000   1.0000   1.0000   1.0000   1.0000   1.0000
     1.0000   1.0000   1.0000   1.0000   1.0000   1.0000   1.0000   1.0000
     1.0000   1.0000   1.0000   1.0000   1.0000   0.9818   0.0000   0.0000
     0.0000   0.0000   0.0000   0.0000   0.0000   0.0000

          k =-0.4000 0.4000-0.0000 (   765 PWs)   bands (ev):

   -90.6636 -88.3186 -50.7262 -50.5464 -50.3675 -47.8986 -47.6393 -47.5080
    -6.2670  -5.9024   7.2333   7.4623   7.9351   8.5207   9.1612   9.2898
    12.5879  12.9727  13.0074  13.9694  14.3865  15.2637  15.2994  15.9994
    16.3703  17.5662  18.7366  21.1990  23.4650  24.5803

     occupation numbers 
     1.0000   1.0000   1.0000   1.0000   1.0000   1.0000   1.0000   1.0000
     1.0000   1.0000   1.0000   1.0000   1.0000   1.0000   1.0000   1.0000
     1.0000   1.0000   1.0000   1.0000   1.0000   0.9115   0.8362   0.0000
     0.0000   0.0000   0.0000   0.0000   0.0000   0.0000

          k =-0.2000 0.6000-0.2000 (   768 PWs)   bands (ev):

   -90.6663 -88.3211 -50.8699 -50.5454 -50.3052 -48.0342 -47.7274 -47.4596
    -6.1493  -5.9034   6.8457   7.1745   7.9040   8.9781   8.9925   9.6953
    12.1861  12.7670  13.0687  14.3025  14.3905  14.6685  15.7829  15.8656
    16.6798  17.0983  19.6834  20.6790  22.9457  23.6015

     occupation numbers 
     1.0000   1.0000   1.0000   1.0000   1.0000   1.0000   1.0000   1.0000
     1.0000   1.0000   1.0000   1.0000   1.0000   1.0000   1.0000   1.0000
     1.0000   1.0000   1.0000   1.0000   1.0000   1.0000   0.0000   0.0000
     0.0000   0.0000   0.0000   0.0000   0.0000   0.0000

          k = 0.1000 0.5000-0.3000 (   764 PWs)   bands (ev):

   -90.6631 -88.3183 -50.7226 -50.4428 -50.3527 -47.8747 -47.6003 -47.5109
    -6.2399  -5.9336   7.0779   7.1674   8.3930   8.6326   9.1368   9.4645
    12.5873  12.7863  12.9187  14.0285  14.5203  15.2658  15.5436  15.9376
    16.4780  17.2921  19.2296  20.7988  23.2148  24.5319

     occupation numbers 
     1.0000   1.0000   1.0000   1.0000   1.0000   1.0000   1.0000   1.0000
     1.0000   1.0000   1.0000   1.0000   1.0000   1.0000   1.0000   1.0000
     1.0000   1.0000   1.0000   1.0000   1.0000   0.9080   0.0595   0.0000
     0.0000   0.0000   0.0000   0.0000   0.0000   0.0000

          k = 0.4000 0.4000-0.4000 (   765 PWs)   bands (ev):

   -90.6643 -88.3194 -50.7184 -50.4375 -50.3991 -47.8214 -47.5861 -47.5503
    -6.0748  -5.9810   6.0382   7.2359   8.8295   8.8400   9.3665   9.7695
    11.9275  12.7915  13.0964  14.2359  14.6571  15.1406  15.8241  15.9247
    17.5044  17.5840  18.0692  18.7932  23.2625  23.8935

     occupation numbers 
     1.0000   1.0000   1.0000   1.0000   1.0000   1.0000   1.0000   1.0000
     1.0000   1.0000   1.0000   1.0000   1.0000   1.0000   1.0000   1.0000
     1.0000   1.0000   1.0000   1.0000   1.0000   0.9957   0.0000   0.0000
     0.0000   0.0000   0.0000   0.0000   0.0000   0.0000

          k =-0.8000 0.8000 0.0000 (   767 PWs)   bands (ev):

   -90.6650 -88.3200 -50.7519 -50.5969 -50.3529 -47.9101 -47.7543 -47.5285
    -5.9332  -5.9261   6.2371   7.4299   8.2873   8.5659   8.8132   9.4116
    12.2101  12.8825  12.9563  14.3627  14.4875  15.3337  15.8256  15.8342
    17.1223  17.5006  19.3472  20.4094  22.2074  23.9588

     occupation numbers 
     1.0000   1.0000   1.0000   1.0000   1.0000   1.0000   1.0000   1.0000
     1.0000   1.0000   1.0000   1.0000   1.0000   1.0000   1.0000   1.0000
     1.0000   1.0000   1.0000   1.0000   1.0000   0.7331   0.0000   0.0000
     0.0000   0.0000   0.0000   0.0000   0.0000   0.0000

          k =-0.5000 0.7000-0.1000 (   768 PWs)   bands (ev):

   -90.6659 -88.3207 -50.7706 -50.5792 -50.3965 -47.9326 -47.7422 -47.5777
    -5.9416  -5.9306   6.7861   7.2008   8.2029   8.4376   8.6764   8.8091
    12.6298  12.9682  13.1302  14.0990  14.4748  15.1923  15.8978  15.9239
    16.7220  17.3508  20.6991  21.4959  22.1413  23.2226

     occupation numbers 
     1.0000   1.0000   1.0000   1.0000   1.0000   1.0000   1.0000   1.0000
     1.0000   1.0000   1.0000   1.0000   1.0000   1.0000   1.0000   1.0000
     1.0000   1.0000   1.0000   1.0000   1.0000   0.9818   0.0000   0.0000
     0.0000   0.0000   0.0000   0.0000   0.0000   0.0000

          k = 0.2000-0.6000 0.2000 (   768 PWs)   bands (ev):

   -90.6663 -88.3211 -50.8699 -50.5454 -50.3052 -48.0342 -47.7274 -47.4596
    -6.1493  -5.9034   6.8457   7.1745   7.9040   8.9781   8.9925   9.6953
    12.1861  12.7670  13.0687  14.3025  14.3905  14.6685  15.7829  15.8656
    16.6798  17.0983  19.6834  20.6790  22.9457  23.6015

     occupation numbers 
     1.0000   1.0000   1.0000   1.0000   1.0000   1.0000   1.0000   1.0000
     1.0000   1.0000   1.0000   1.0000   1.0000   1.0000   1.0000   1.0000
     1.0000   1.0000   1.0000   1.0000   1.0000   1.0000   0.0000   0.0000
     0.0000   0.0000   0.0000   0.0000   0.0000   0.0000

          k = 0.5000-0.7000 0.1000 (   768 PWs)   bands (ev):

   -90.6659 -88.3207 -50.7706 -50.5792 -50.3965 -47.9326 -47.7422 -47.5777
    -5.9416  -5.9306   6.7861   7.2008   8.2029   8.4376   8.6764   8.8091
    12.6298  12.9682  13.1302  14.0990  14.4748  15.1923  15.8978  15.9239
    16.7220  17.3508  20.6991  21.4959  22.1413  23.2226

     occupation numbers 
     1.0000   1.0000   1.0000   1.0000   1.0000   1.0000   1.0000   1.0000
     1.0000   1.0000   1.0000   1.0000   1.0000   1.0000   1.0000   1.0000
     1.0000   1.0000   1.0000   1.0000   1.0000   0.9818   0.0000   0.0000
     0.0000   0.0000   0.0000   0.0000   0.0000   0.0000

          k = 0.8000-0.8000 0.0000 (   767 PWs)   bands (ev):

   -90.6650 -88.3200 -50.7519 -50.5969 -50.3529 -47.9101 -47.7543 -47.5285
    -5.9332  -5.9261   6.2371   7.4299   8.2873   8.5659   8.8132   9.4116
    12.2101  12.8825  12.9563  14.3627  14.4875  15.3337  15.8256  15.8342
    17.1223  17.5006  19.3472  20.4094  22.2074  23.9588

     occupation numbers 
     1.0000   1.0000   1.0000   1.0000   1.0000   1.0000   1.0000   1.0000
     1.0000   1.0000   1.0000   1.0000   1.0000   1.0000   1.0000   1.0000
     1.0000   1.0000   1.0000   1.0000   1.0000   0.7331   0.0000   0.0000
     0.0000   0.0000   0.0000   0.0000   0.0000   0.0000

          k =-0.4000-0.4000 0.4000 (   765 PWs)   bands (ev):

   -90.6643 -88.3194 -50.7184 -50.4375 -50.3991 -47.8214 -47.5861 -47.5503
    -6.0748  -5.9810   6.0382   7.2359   8.8295   8.8400   9.3665   9.7695
    11.9275  12.7915  13.0964  14.2359  14.6571  15.1406  15.8241  15.9247
    17.5044  17.5840  18.0692  18.7932  23.2625  23.8935

     occupation numbers 
     1.0000   1.0000   1.0000   1.0000   1.0000   1.0000   1.0000   1.0000
     1.0000   1.0000   1.0000   1.0000   1.0000   1.0000   1.0000   1.0000
     1.0000   1.0000   1.0000   1.0000   1.0000   0.9957   0.0000   0.0000
     0.0000   0.0000   0.0000   0.0000   0.0000   0.0000

          k =-0.1000-0.5000 0.3000 (   764 PWs)   bands (ev):

   -90.6631 -88.3183 -50.7226 -50.4428 -50.3527 -47.8747 -47.6003 -47.5109
    -6.2399  -5.9336   7.0779   7.1674   8.3930   8.6326   9.1368   9.4645
    12.5873  12.7863  12.9187  14.0285  14.5203  15.2658  15.5436  15.9376
    16.4780  17.2921  19.2296  20.7988  23.2148  24.5319

     occupation numbers 
     1.0000   1.0000   1.0000   1.0000   1.0000   1.0000   1.0000   1.0000
     1.0000   1.0000   1.0000   1.0000   1.0000   1.0000   1.0000   1.0000
     1.0000   1.0000   1.0000   1.0000   1.0000   0.9080   0.0595   0.0000
     0.0000   0.0000   0.0000   0.0000   0.0000   0.0000

          k = 0.1000-0.3000 0.1000 (   754 PWs)   bands (ev):

   -90.6542 -88.3100 -50.4856 -50.2841 -50.2499 -47.6223 -47.4270 -47.3835
    -6.7160  -5.9273   6.3837   8.4366   8.7088   8.8392  10.3150  10.4448
    12.5450  12.9610  13.1428  13.8700  14.1616  15.0440  15.6039  15.6463
    16.3200  17.3605  17.4076  20.7493  22.0621  25.3313

     occupation numbers 
     1.0000   1.0000   1.0000   1.0000   1.0000   1.0000   1.0000   1.0000
     1.0000   1.0000   1.0000   1.0000   1.0000   1.0000   1.0000   1.0000
     1.0000   1.0000   1.0000   1.0000   1.0000   0.9999   0.0144   0.0043
     0.0000   0.0000   0.0000   0.0000   0.0000   0.0000

          k = 0.4000-0.4000-0.0000 (   765 PWs)   bands (ev):

   -90.6636 -88.3186 -50.7262 -50.5464 -50.3675 -47.8986 -47.6393 -47.5080
    -6.2670  -5.9024   7.2333   7.4623   7.9351   8.5207   9.1612   9.2898
    12.5879  12.9727  13.0074  13.9694  14.3865  15.2637  15.2994  15.9994
    16.3703  17.5662  18.7366  21.1990  23.4650  24.5803

     occupation numbers 
     1.0000   1.0000   1.0000   1.0000   1.0000   1.0000   1.0000   1.0000
     1.0000   1.0000   1.0000   1.0000   1.0000   1.0000   1.0000   1.0000
     1.0000   1.0000   1.0000   1.0000   1.0000   0.9115   0.8362   0.0000
     0.0000   0.0000   0.0000   0.0000   0.0000   0.0000

          k = 0.7000-0.5000-0.1000 (   768 PWs)   bands (ev):

   -90.6659 -88.3207 -50.7706 -50.5792 -50.3965 -47.9326 -47.7422 -47.5777
    -5.9416  -5.9306   6.7861   7.2008   8.2029   8.4376   8.6764   8.8091
    12.6298  12.9682  13.1302  14.0990  14.4748  15.1923  15.8978  15.9239
    16.7220  17.3508  20.6991  21.4959  22.1413  23.2226

     occupation numbers 
     1.0000   1.0000   1.0000   1.0000   1.0000   1.0000   1.0000   1.0000
     1.0000   1.0000   1.0000   1.0000   1.0000   1.0000   1.0000   1.0000
     1.0000   1.0000   1.0000   1.0000   1.0000   0.9818   0.0000   0.0000
     0.0000   0.0000   0.0000   0.0000   0.0000   0.0000

          k =-0.5000-0.1000 0.3000 (   764 PWs)   bands (ev):

   -90.6631 -88.3183 -50.7226 -50.4428 -50.3527 -47.8747 -47.6003 -47.5109
    -6.2399  -5.9336   7.0779   7.1674   8.3930   8.6326   9.1368   9.4645
    12.5873  12.7863  12.9187  14.0285  14.5203  15.2658  15.5436  15.9376
    16.4780  17.2921  19.2296  20.7988  23.2148  24.5320

     occupation numbers 
     1.0000   1.0000   1.0000   1.0000   1.0000   1.0000   1.0000   1.0000
     1.0000   1.0000   1.0000   1.0000   1.0000   1.0000   1.0000   1.0000
     1.0000   1.0000   1.0000   1.0000   1.0000   0.9080   0.0595   0.0000
     0.0000   0.0000   0.0000   0.0000   0.0000   0.0000

          k =-0.2000-0.2000 0.2000 (   751 PWs)   bands (ev):

   -90.6518 -88.3078 -50.3935 -50.3262 -50.1773 -47.4666 -47.4306 -47.3040
    -6.6832  -5.9619   6.4604   8.4431   8.5895   9.0760  10.2617  10.2772
    12.6437  12.8664  13.1308  14.3402  14.4895  15.0828  15.7396  15.7657
    16.4477  17.0039  17.1098  20.2905  22.4477  25.6614

     occupation numbers 
     1.0000   1.0000   1.0000   1.0000   1.0000   1.0000   1.0000   1.0000
     1.0000   1.0000   1.0000   1.0000   1.0000   1.0000   1.0000   1.0000
     1.0000   1.0000   1.0000   1.0000   1.0000   0.9994   0.0002   0.0001
     0.0000   0.0000   0.0000   0.0000   0.0000   0.0000

          k =-0.1000-0.1000 0.3000 (   754 PWs)   bands (ev):

   -90.6542 -88.3100 -50.4856 -50.2841 -50.2499 -47.6223 -47.4270 -47.3835
    -6.7160  -5.9273   6.3837   8.4366   8.7088   8.8392  10.3150  10.4448
    12.5450  12.9610  13.1428  13.8700  14.1616  15.0440  15.6039  15.6463
    16.3200  17.3605  17.4076  20.7493  22.0621  25.3313

     occupation numbers 
     1.0000   1.0000   1.0000   1.0000   1.0000   1.0000   1.0000   1.0000
     1.0000   1.0000   1.0000   1.0000   1.0000   1.0000   1.0000   1.0000
     1.0000   1.0000   1.0000   1.0000   1.0000   0.9999   0.0144   0.0043
     0.0000   0.0000   0.0000   0.0000   0.0000   0.0000

          k = 0.2000-0.2000 0.2000 (   751 PWs)   bands (ev):

   -90.6518 -88.3078 -50.3935 -50.3262 -50.1773 -47.4666 -47.4306 -47.3040
    -6.6832  -5.9619   6.4604   8.4431   8.5895   9.0760  10.2617  10.2772
    12.6437  12.8664  13.1308  14.3402  14.4895  15.0828  15.7396  15.7657
    16.4477  17.0039  17.1098  20.2905  22.4477  25.6614

     occupation numbers 
     1.0000   1.0000   1.0000   1.0000   1.0000   1.0000   1.0000   1.0000
     1.0000   1.0000   1.0000   1.0000   1.0000   1.0000   1.0000   1.0000
     1.0000   1.0000   1.0000   1.0000   1.0000   0.9994   0.0002   0.0001
     0.0000   0.0000   0.0000   0.0000   0.0000   0.0000

          k = 0.5000-0.3000 0.1000 (   764 PWs)   bands (ev):

   -90.6631 -88.3183 -50.7226 -50.4428 -50.3527 -47.8747 -47.6003 -47.5109
    -6.2399  -5.9336   7.0779   7.1674   8.3930   8.6326   9.1368   9.4645
    12.5873  12.7863  12.9187  14.0285  14.5203  15.2658  15.5436  15.9376
    16.4780  17.2921  19.2296  20.7988  23.2148  24.5319

     occupation numbers 
     1.0000   1.0000   1.0000   1.0000   1.0000   1.0000   1.0000   1.0000
     1.0000   1.0000   1.0000   1.0000   1.0000   1.0000   1.0000   1.0000
     1.0000   1.0000   1.0000   1.0000   1.0000   0.9080   0.0595   0.0000
     0.0000   0.0000   0.0000   0.0000   0.0000   0.0000

          k =-0.7000 0.1000 0.5000 (   768 PWs)   bands (ev):

   -90.6659 -88.3207 -50.7706 -50.5792 -50.3965 -47.9326 -47.7422 -47.5777
    -5.9416  -5.9306   6.7861   7.2008   8.2029   8.4376   8.6764   8.8091
    12.6298  12.9682  13.1302  14.0990  14.4748  15.1923  15.8978  15.9239
    16.7220  17.3508  20.6991  21.4959  22.1413  23.2226

     occupation numbers 
     1.0000   1.0000   1.0000   1.0000   1.0000   1.0000   1.0000   1.0000
     1.0000   1.0000   1.0000   1.0000   1.0000   1.0000   1.0000   1.0000
     1.0000   1.0000   1.0000   1.0000   1.0000   0.9818   0.0000   0.0000
     0.0000   0.0000   0.0000   0.0000   0.0000   0.0000

          k =-0.4000-0.0000 0.4000 (   765 PWs)   bands (ev):

   -90.6636 -88.3186 -50.7262 -50.5464 -50.3675 -47.8986 -47.6393 -47.5080
    -6.2670  -5.9024   7.2333   7.4623   7.9351   8.5207   9.1612   9.2898
    12.5879  12.9727  13.0074  13.9694  14.3865  15.2637  15.2994  15.9994
    16.3703  17.5662  18.7366  21.1990  23.4650  24.5803

     occupation numbers 
     1.0000   1.0000   1.0000   1.0000   1.0000   1.0000   1.0000   1.0000
     1.0000   1.0000   1.0000   1.0000   1.0000   1.0000   1.0000   1.0000
     1.0000   1.0000   1.0000   1.0000   1.0000   0.9115   0.8362   0.0000
     0.0000   0.0000   0.0000   0.0000   0.0000   0.0000

          k =-0.2000 0.2000 0.2000 (   751 PWs)   bands (ev):

   -90.6518 -88.3078 -50.3935 -50.3262 -50.1773 -47.4666 -47.4306 -47.3040
    -6.6832  -5.9619   6.4604   8.4431   8.5895   9.0760  10.2617  10.2772
    12.6437  12.8664  13.1308  14.3402  14.4895  15.0828  15.7396  15.7657
    16.4477  17.0039  17.1098  20.2905  22.4477  25.6614

     occupation numbers 
     1.0000   1.0000   1.0000   1.0000   1.0000   1.0000   1.0000   1.0000
     1.0000   1.0000   1.0000   1.0000   1.0000   1.0000   1.0000   1.0000
     1.0000   1.0000   1.0000   1.0000   1.0000   0.9994   0.0002   0.0001
     0.0000   0.0000   0.0000   0.0000   0.0000   0.0000

          k = 0.1000 0.1000 0.1000 (   755 PWs)   bands (ev):

   -90.6562 -88.3120 -50.5340 -50.2608 -50.2608 -47.6274 -47.3632 -47.3632
    -6.9356  -6.0719   6.0119   8.8213   8.8213  10.1082  10.9936  10.9936
    12.5588  12.5588  12.9077  14.1718  14.1718  14.4571  15.2842  15.2842
    15.5601  17.4155  17.4155  18.1123  23.2597  27.0997

     occupation numbers 
     1.0000   1.0000   1.0000   1.0000   1.0000   1.0000   1.0000   1.0000
     1.0000   1.0000   1.0000   1.0000   1.0000   1.0000   1.0000   1.0000
     1.0000   1.0000   1.0000   1.0000   1.0000   1.0000   0.8722   0.8722
     0.0418   0.0000   0.0000   0.0000   0.0000   0.0000

          k = 0.4000 0.0000 0.0000 (   752 PWs)   bands (ev):

   -90.6531 -88.3091 -50.4798 -50.3583 -50.1175 -47.4891 -47.4356 -47.2381
    -6.5965  -6.0596   6.5959   8.1514   8.7064   8.8872  10.4537  10.4720
    12.5328  13.1677  13.1913  13.6376  13.8695  15.1133  15.7291  15.8972
    16.0006  17.5236  18.3790  19.9220  23.1308  25.3453

     occupation numbers 
     1.0000   1.0000   1.0000   1.0000   1.0000   1.0000   1.0000   1.0000
     1.0000   1.0000   1.0000   1.0000   1.0000   1.0000   1.0000   1.0000
     1.0000   1.0000   1.0000   1.0000   1.0000   0.9982   0.0002   0.0000
     0.0000   0.0000   0.0000   0.0000   0.0000   0.0000

          k =-0.8000 0.4000 0.4000 (   764 PWs)   bands (ev):

   -90.6636 -88.3187 -50.8855 -50.3691 -50.2696 -48.0135 -47.5240 -47.4092
    -6.1282  -5.9289   6.3957   7.0626   8.4769   8.8489   9.4623   9.8909
    12.0653  12.6526  13.1588  14.0741  14.5353  14.9984  15.6644  15.9496
    16.7372  17.5243  19.4890  20.7353  22.0818  23.6473

     occupation numbers 
     1.0000   1.0000   1.0000   1.0000   1.0000   1.0000   1.0000   1.0000
     1.0000   1.0000   1.0000   1.0000   1.0000   1.0000   1.0000   1.0000
     1.0000   1.0000   1.0000   1.0000   1.0000   1.0000   0.0024   0.0000
     0.0000   0.0000   0.0000   0.0000   0.0000   0.0000

          k =-0.5000 0.3000 0.3000 (   762 PWs)   bands (ev):

   -90.6614 -88.3165 -50.7161 -50.3675 -50.3432 -47.8891 -47.5274 -47.4676
    -6.1211  -5.9252   6.4905   7.4348   8.2511   8.9946   9.0756   9.5684
    12.1269  12.7180  13.2615  14.4674  14.6766  14.9207  15.7526  16.0976
    17.2979  17.4014  18.8797  19.4389  23.5543  24.0082

     occupation numbers 
     1.0000   1.0000   1.0000   1.0000   1.0000   1.0000   1.0000   1.0000
     1.0000   1.0000   1.0000   1.0000   1.0000   1.0000   1.0000   1.0000
     1.0000   1.0000   1.0000   1.0000   1.0000   1.0000   0.0001   0.0000
     0.0000   0.0000   0.0000   0.0000   0.0000   0.0000

          k =-0.3000 0.5000 0.1000 (   764 PWs)   bands (ev):

   -90.6631 -88.3183 -50.7226 -50.4428 -50.3527 -47.8747 -47.6003 -47.5109
    -6.2399  -5.9336   7.0779   7.1674   8.3930   8.6326   9.1368   9.4645
    12.5873  12.7863  12.9187  14.0285  14.5203  15.2658  15.5436  15.9376
    16.4780  17.2921  19.2296  20.7988  23.2148  24.5320

     occupation numbers 
     1.0000   1.0000   1.0000   1.0000   1.0000   1.0000   1.0000   1.0000
     1.0000   1.0000   1.0000   1.0000   1.0000   1.0000   1.0000   1.0000
     1.0000   1.0000   1.0000   1.0000   1.0000   0.9080   0.0595   0.0000
     0.0000   0.0000   0.0000   0.0000   0.0000   0.0000

          k = 0.0000 0.4000 0.0000 (   752 PWs)   bands (ev):

   -90.6531 -88.3091 -50.4798 -50.3583 -50.1175 -47.4891 -47.4356 -47.2381
    -6.5965  -6.0596   6.5959   8.1514   8.7064   8.8872  10.4537  10.4720
    12.5328  13.1677  13.1913  13.6376  13.8695  15.1133  15.7291  15.8972
    16.0006  17.5236  18.3790  19.9220  23.1308  25.3453

     occupation numbers 
     1.0000   1.0000   1.0000   1.0000   1.0000   1.0000   1.0000   1.0000
     1.0000   1.0000   1.0000   1.0000   1.0000   1.0000   1.0000   1.0000
     1.0000   1.0000   1.0000   1.0000   1.0000   0.9982   0.0002   0.0000
     0.0000   0.0000   0.0000   0.0000   0.0000   0.0000

          k = 0.3000 0.3000-0.1000 (   756 PWs)   bands (ev):

   -90.6567 -88.3123 -50.5758 -50.4245 -50.1410 -47.7368 -47.4782 -47.2641
    -6.5138  -6.1471   6.8506   7.8560   8.9790   9.3442   9.9216   9.9440
    12.3188  12.7130  13.0591  14.1862  14.2812  15.1032  15.5961  15.6757
    16.2498  17.0067  17.5986  19.7237  23.6196  26.4343

     occupation numbers 
     1.0000   1.0000   1.0000   1.0000   1.0000   1.0000   1.0000   1.0000
     1.0000   1.0000   1.0000   1.0000   1.0000   1.0000   1.0000   1.0000
     1.0000   1.0000   1.0000   1.0000   1.0000   0.9987   0.0177   0.0017
     0.0000   0.0000   0.0000   0.0000   0.0000   0.0000

          k =-0.9000 0.7000 0.3000 (   763 PWs)   bands (ev):

   -90.6629 -88.3182 -50.7365 -50.4541 -50.2768 -47.8311 -47.5968 -47.4119
    -6.1489  -6.0238   6.8680   6.9392   8.7492   8.9651   9.1584   9.6863
    12.4556  12.6079  12.9381  14.0721  14.4638  15.2622  15.6667  15.8835
    16.5896  17.1268  19.7234  20.1605  23.0963  23.7141

     occupation numbers 
     1.0000   1.0000   1.0000   1.0000   1.0000   1.0000   1.0000   1.0000
     1.0000   1.0000   1.0000   1.0000   1.0000   1.0000   1.0000   1.0000
     1.0000   1.0000   1.0000   1.0000   1.0000   0.9139   0.0023   0.0000
     0.0000   0.0000   0.0000   0.0000   0.0000   0.0000

          k =-0.6000 0.6000 0.2000 (   767 PWs)   bands (ev):

   -90.6650 -88.3199 -50.7791 -50.5818 -50.3519 -47.9352 -47.7233 -47.5325
    -5.9349  -5.9280   6.4091   7.3382   8.3572   8.4470   8.8562   9.0696
    12.4854  12.8774  13.0308  14.2430  14.4096  15.3724  15.7887  15.9141
    16.9751  17.5240  19.8102  20.7131  22.1283  23.7785

     occupation numbers 
     1.0000   1.0000   1.0000   1.0000   1.0000   1.0000   1.0000   1.0000
     1.0000   1.0000   1.0000   1.0000   1.0000   1.0000   1.0000   1.0000
     1.0000   1.0000   1.0000   1.0000   1.0000   0.5871   0.0000   0.0000
     0.0000   0.0000   0.0000   0.0000   0.0000   0.0000

          k = 0.1000-0.7000 0.5000 (   768 PWs)   bands (ev):

   -90.6659 -88.3207 -50.7706 -50.5792 -50.3965 -47.9326 -47.7422 -47.5777
    -5.9416  -5.9306   6.7861   7.2008   8.2029   8.4376   8.6764   8.8091
    12.6298  12.9682  13.1302  14.0990  14.4748  15.1923  15.8978  15.9239
    16.7220  17.3508  20.6991  21.4959  22.1413  23.2226

     occupation numbers 
     1.0000   1.0000   1.0000   1.0000   1.0000   1.0000   1.0000   1.0000
     1.0000   1.0000   1.0000   1.0000   1.0000   1.0000   1.0000   1.0000
     1.0000   1.0000   1.0000   1.0000   1.0000   0.9818   0.0000   0.0000
     0.0000   0.0000   0.0000   0.0000   0.0000   0.0000

          k = 0.4000-0.8000 0.4000 (   764 PWs)   bands (ev):

   -90.6636 -88.3187 -50.8855 -50.3691 -50.2696 -48.0135 -47.5240 -47.4092
    -6.1282  -5.9289   6.3957   7.0626   8.4769   8.8489   9.4623   9.8909
    12.0653  12.6526  13.1588  14.0741  14.5353  14.9984  15.6644  15.9496
    16.7372  17.5243  19.4890  20.7353  22.0818  23.6473

     occupation numbers 
     1.0000   1.0000   1.0000   1.0000   1.0000   1.0000   1.0000   1.0000
     1.0000   1.0000   1.0000   1.0000   1.0000   1.0000   1.0000   1.0000
     1.0000   1.0000   1.0000   1.0000   1.0000   1.0000   0.0024   0.0000
     0.0000   0.0000   0.0000   0.0000   0.0000   0.0000

          k = 0.7000-0.9000 0.3000 (   763 PWs)   bands (ev):

   -90.6629 -88.3182 -50.7365 -50.4541 -50.2768 -47.8311 -47.5968 -47.4119
    -6.1489  -6.0238   6.8680   6.9392   8.7492   8.9651   9.1584   9.6863
    12.4556  12.6079  12.9381  14.0721  14.4638  15.2622  15.6667  15.8835
    16.5896  17.1268  19.7234  20.1605  23.0963  23.7141

     occupation numbers 
     1.0000   1.0000   1.0000   1.0000   1.0000   1.0000   1.0000   1.0000
     1.0000   1.0000   1.0000   1.0000   1.0000   1.0000   1.0000   1.0000
     1.0000   1.0000   1.0000   1.0000   1.0000   0.9139   0.0023   0.0000
     0.0000   0.0000   0.0000   0.0000   0.0000   0.0000

          k =-0.5000-0.5000 0.7000 (   761 PWs)   bands (ev):

   -90.6607 -88.3162 -50.7145 -50.3280 -50.2961 -47.8400 -47.4559 -47.4427
    -6.0519  -5.9879   6.0436   7.2122   8.8766   8.8879   9.8924   9.8939
    11.8530  12.9636  13.2148  13.7486  14.2171  15.2676  15.9512  16.0148
    17.1475  17.6621  18.8484  19.2303  22.8674  23.6017

     occupation numbers 
     1.0000   1.0000   1.0000   1.0000   1.0000   1.0000   1.0000   1.0000
     1.0000   1.0000   1.0000   1.0000   1.0000   1.0000   1.0000   1.0000
     1.0000   1.0000   1.0000   1.0000   1.0000   0.9047   0.0000   0.0000
     0.0000   0.0000   0.0000   0.0000   0.0000   0.0000

          k =-0.2000-0.6000 0.6000 (   767 PWs)   bands (ev):

   -90.6650 -88.3199 -50.7791 -50.5818 -50.3519 -47.9352 -47.7233 -47.5325
    -5.9349  -5.9280   6.4091   7.3382   8.3572   8.4470   8.8562   9.0696
    12.4854  12.8774  13.0308  14.2430  14.4096  15.3724  15.7887  15.9141
    16.9751  17.5240  19.8102  20.7131  22.1283  23.7785

     occupation numbers 
     1.0000   1.0000   1.0000   1.0000   1.0000   1.0000   1.0000   1.0000
     1.0000   1.0000   1.0000   1.0000   1.0000   1.0000   1.0000   1.0000
     1.0000   1.0000   1.0000   1.0000   1.0000   0.5871   0.0000   0.0000
     0.0000   0.0000   0.0000   0.0000   0.0000   0.0000

          k =-0.0000-0.4000 0.4000 (   765 PWs)   bands (ev):

   -90.6636 -88.3186 -50.7262 -50.5464 -50.3675 -47.8986 -47.6393 -47.5080
    -6.2670  -5.9024   7.2333   7.4623   7.9351   8.5207   9.1612   9.2898
    12.5879  12.9727  13.0074  13.9694  14.3865  15.2637  15.2994  15.9994
    16.3703  17.5662  18.7366  21.1990  23.4650  24.5803

     occupation numbers 
     1.0000   1.0000   1.0000   1.0000   1.0000   1.0000   1.0000   1.0000
     1.0000   1.0000   1.0000   1.0000   1.0000   1.0000   1.0000   1.0000
     1.0000   1.0000   1.0000   1.0000   1.0000   0.9115   0.8362   0.0000
     0.0000   0.0000   0.0000   0.0000   0.0000   0.0000

          k = 0.3000-0.5000 0.3000 (   762 PWs)   bands (ev):

   -90.6614 -88.3165 -50.7161 -50.3675 -50.3432 -47.8891 -47.5274 -47.4676
    -6.1211  -5.9252   6.4905   7.4348   8.2511   8.9946   9.0756   9.5684
    12.1269  12.7180  13.2615  14.4674  14.6766  14.9207  15.7526  16.0976
    17.2979  17.4014  18.8797  19.4389  23.5543  24.0082

     occupation numbers 
     1.0000   1.0000   1.0000   1.0000   1.0000   1.0000   1.0000   1.0000
     1.0000   1.0000   1.0000   1.0000   1.0000   1.0000   1.0000   1.0000
     1.0000   1.0000   1.0000   1.0000   1.0000   1.0000   0.0001   0.0000
     0.0000   0.0000   0.0000   0.0000   0.0000   0.0000

          k = 0.6000-0.6000 0.2000 (   767 PWs)   bands (ev):

   -90.6650 -88.3199 -50.7791 -50.5818 -50.3519 -47.9352 -47.7233 -47.5325
    -5.9349  -5.9280   6.4091   7.3382   8.3572   8.4470   8.8562   9.0696
    12.4854  12.8774  13.0308  14.2430  14.4096  15.3724  15.7887  15.9141
    16.9751  17.5240  19.8102  20.7131  22.1283  23.7785

     occupation numbers 
     1.0000   1.0000   1.0000   1.0000   1.0000   1.0000   1.0000   1.0000
     1.0000   1.0000   1.0000   1.0000   1.0000   1.0000   1.0000   1.0000
     1.0000   1.0000   1.0000   1.0000   1.0000   0.5871   0.0000   0.0000
     0.0000   0.0000   0.0000   0.0000   0.0000   0.0000

          k =-0.6000-0.2000 0.6000 (   767 PWs)   bands (ev):

   -90.6650 -88.3199 -50.7791 -50.5818 -50.3519 -47.9352 -47.7233 -47.5325
    -5.9349  -5.9280   6.4091   7.3382   8.3572   8.4470   8.8562   9.0696
    12.4854  12.8774  13.0308  14.2430  14.4096  15.3724  15.7887  15.9141
    16.9751  17.5240  19.8102  20.7131  22.1283  23.7785

     occupation numbers 
     1.0000   1.0000   1.0000   1.0000   1.0000   1.0000   1.0000   1.0000
     1.0000   1.0000   1.0000   1.0000   1.0000   1.0000   1.0000   1.0000
     1.0000   1.0000   1.0000   1.0000   1.0000   0.5871   0.0000   0.0000
     0.0000   0.0000   0.0000   0.0000   0.0000   0.0000

          k =-0.3000-0.3000 0.5000 (   762 PWs)   bands (ev):

   -90.6614 -88.3165 -50.7161 -50.3675 -50.3432 -47.8891 -47.5274 -47.4676
    -6.1211  -5.9252   6.4905   7.4348   8.2511   8.9946   9.0756   9.5684
    12.1269  12.7180  13.2615  14.4674  14.6766  14.9207  15.7526  16.0976
    17.2979  17.4014  18.8797  19.4389  23.5543  24.0082

     occupation numbers 
     1.0000   1.0000   1.0000   1.0000   1.0000   1.0000   1.0000   1.0000
     1.0000   1.0000   1.0000   1.0000   1.0000   1.0000   1.0000   1.0000
     1.0000   1.0000   1.0000   1.0000   1.0000   1.0000   0.0001   0.0000
     0.0000   0.0000   0.0000   0.0000   0.0000   0.0000

          k =-0.2000-0.2000 0.6000 (   768 PWs)   bands (ev):

   -90.6663 -88.3211 -50.8699 -50.5454 -50.3052 -48.0342 -47.7274 -47.4596
    -6.1493  -5.9034   6.8457   7.1745   7.9040   8.9781   8.9925   9.6953
    12.1861  12.7670  13.0687  14.3025  14.3905  14.6685  15.7829  15.8656
    16.6798  17.0983  19.6834  20.6790  22.9457  23.6015

     occupation numbers 
     1.0000   1.0000   1.0000   1.0000   1.0000   1.0000   1.0000   1.0000
     1.0000   1.0000   1.0000   1.0000   1.0000   1.0000   1.0000   1.0000
     1.0000   1.0000   1.0000   1.0000   1.0000   1.0000   0.0000   0.0000
     0.0000   0.0000   0.0000   0.0000   0.0000   0.0000

          k = 0.1000-0.3000 0.5000 (   764 PWs)   bands (ev):

   -90.6631 -88.3183 -50.7226 -50.4428 -50.3527 -47.8747 -47.6003 -47.5109
    -6.2399  -5.9336   7.0779   7.1674   8.3930   8.6326   9.1368   9.4645
    12.5873  12.7863  12.9187  14.0285  14.5203  15.2658  15.5436  15.9376
    16.4780  17.2921  19.2296  20.7988  23.2148  24.5319

     occupation numbers 
     1.0000   1.0000   1.0000   1.0000   1.0000   1.0000   1.0000   1.0000
     1.0000   1.0000   1.0000   1.0000   1.0000   1.0000   1.0000   1.0000
     1.0000   1.0000   1.0000   1.0000   1.0000   0.9080   0.0595   0.0000
     0.0000   0.0000   0.0000   0.0000   0.0000   0.0000

          k = 0.4000-0.4000 0.4000 (   765 PWs)   bands (ev):

   -90.6643 -88.3194 -50.7184 -50.4375 -50.3991 -47.8214 -47.5861 -47.5503
    -6.0748  -5.9810   6.0382   7.2359   8.8295   8.8400   9.3665   9.7695
    11.9275  12.7915  13.0964  14.2359  14.6571  15.1406  15.8241  15.9247
    17.5044  17.5840  18.0692  18.7932  23.2625  23.8935

     occupation numbers 
     1.0000   1.0000   1.0000   1.0000   1.0000   1.0000   1.0000   1.0000
     1.0000   1.0000   1.0000   1.0000   1.0000   1.0000   1.0000   1.0000
     1.0000   1.0000   1.0000   1.0000   1.0000   0.9957   0.0000   0.0000
     0.0000   0.0000   0.0000   0.0000   0.0000   0.0000

          k =-0.8000 0.0000 0.8000 (   767 PWs)   bands (ev):

   -90.6650 -88.3200 -50.7519 -50.5969 -50.3529 -47.9101 -47.7543 -47.5285
    -5.9332  -5.9261   6.2371   7.4299   8.2873   8.5659   8.8132   9.4116
    12.2101  12.8825  12.9563  14.3627  14.4875  15.3337  15.8256  15.8342
    17.1223  17.5006  19.3472  20.4094  22.2074  23.9587

     occupation numbers 
     1.0000   1.0000   1.0000   1.0000   1.0000   1.0000   1.0000   1.0000
     1.0000   1.0000   1.0000   1.0000   1.0000   1.0000   1.0000   1.0000
     1.0000   1.0000   1.0000   1.0000   1.0000   0.7331   0.0000   0.0000
     0.0000   0.0000   0.0000   0.0000   0.0000   0.0000

          k =-0.5000-0.1000 0.7000 (   768 PWs)   bands (ev):

   -90.6659 -88.3207 -50.7706 -50.5792 -50.3965 -47.9326 -47.7422 -47.5777
    -5.9416  -5.9306   6.7861   7.2008   8.2029   8.4376   8.6764   8.8091
    12.6298  12.9682  13.1302  14.0990  14.4748  15.1923  15.8978  15.9239
    16.7220  17.3508  20.6991  21.4959  22.1413  23.2226

     occupation numbers 
     1.0000   1.0000   1.0000   1.0000   1.0000   1.0000   1.0000   1.0000
     1.0000   1.0000   1.0000   1.0000   1.0000   1.0000   1.0000   1.0000
     1.0000   1.0000   1.0000   1.0000   1.0000   0.9818   0.0000   0.0000
     0.0000   0.0000   0.0000   0.0000   0.0000   0.0000

          k =-0.3000 0.1000 0.5000 (   764 PWs)   bands (ev):

   -90.6631 -88.3183 -50.7226 -50.4428 -50.3527 -47.8747 -47.6003 -47.5109
    -6.2399  -5.9336   7.0779   7.1674   8.3930   8.6326   9.1368   9.4645
    12.5873  12.7863  12.9187  14.0285  14.5203  15.2658  15.5436  15.9376
    16.4780  17.2921  19.2296  20.7988  23.2148  24.5319

     occupation numbers 
     1.0000   1.0000   1.0000   1.0000   1.0000   1.0000   1.0000   1.0000
     1.0000   1.0000   1.0000   1.0000   1.0000   1.0000   1.0000   1.0000
     1.0000   1.0000   1.0000   1.0000   1.0000   0.9080   0.0595   0.0000
     0.0000   0.0000   0.0000   0.0000   0.0000   0.0000

          k = 0.0000 0.0000 0.4000 (   752 PWs)   bands (ev):

   -90.6531 -88.3091 -50.4798 -50.3583 -50.1175 -47.4891 -47.4356 -47.2381
    -6.5965  -6.0596   6.5959   8.1514   8.7064   8.8872  10.4537  10.4720
    12.5328  13.1677  13.1913  13.6376  13.8695  15.1133  15.7291  15.8972
    16.0006  17.5236  18.3790  19.9220  23.1308  25.3453

     occupation numbers 
     1.0000   1.0000   1.0000   1.0000   1.0000   1.0000   1.0000   1.0000
     1.0000   1.0000   1.0000   1.0000   1.0000   1.0000   1.0000   1.0000
     1.0000   1.0000   1.0000   1.0000   1.0000   0.9982   0.0002   0.0000
     0.0000   0.0000   0.0000   0.0000   0.0000   0.0000

          k = 0.3000-0.1000 0.3000 (   756 PWs)   bands (ev):

   -90.6567 -88.3123 -50.5758 -50.4245 -50.1410 -47.7368 -47.4782 -47.2641
    -6.5138  -6.1471   6.8506   7.8560   8.9790   9.3442   9.9216   9.9440
    12.3188  12.7130  13.0591  14.1862  14.2812  15.1032  15.5961  15.6757
    16.2498  17.0067  17.5986  19.7237  23.6196  26.4343

     occupation numbers 
     1.0000   1.0000   1.0000   1.0000   1.0000   1.0000   1.0000   1.0000
     1.0000   1.0000   1.0000   1.0000   1.0000   1.0000   1.0000   1.0000
     1.0000   1.0000   1.0000   1.0000   1.0000   0.9987   0.0177   0.0017
     0.0000   0.0000   0.0000   0.0000   0.0000   0.0000

          k =-0.9000 0.3000 0.7000 (   763 PWs)   bands (ev):

   -90.6629 -88.3182 -50.7365 -50.4541 -50.2768 -47.8311 -47.5968 -47.4119
    -6.1489  -6.0238   6.8680   6.9392   8.7492   8.9651   9.1584   9.6863
    12.4556  12.6079  12.9381  14.0721  14.4638  15.2622  15.6667  15.8835
    16.5896  17.1268  19.7234  20.1605  23.0963  23.7141

     occupation numbers 
     1.0000   1.0000   1.0000   1.0000   1.0000   1.0000   1.0000   1.0000
     1.0000   1.0000   1.0000   1.0000   1.0000   1.0000   1.0000   1.0000
     1.0000   1.0000   1.0000   1.0000   1.0000   0.9139   0.0023   0.0000
     0.0000   0.0000   0.0000   0.0000   0.0000   0.0000

          k =-0.6000 0.2000 0.6000 (   767 PWs)   bands (ev):

   -90.6650 -88.3199 -50.7791 -50.5818 -50.3519 -47.9352 -47.7233 -47.5325
    -5.9349  -5.9280   6.4091   7.3382   8.3572   8.4470   8.8562   9.0696
    12.4854  12.8774  13.0308  14.2430  14.4096  15.3724  15.7887  15.9141
    16.9751  17.5240  19.8102  20.7131  22.1283  23.7785

     occupation numbers 
     1.0000   1.0000   1.0000   1.0000   1.0000   1.0000   1.0000   1.0000
     1.0000   1.0000   1.0000   1.0000   1.0000   1.0000   1.0000   1.0000
     1.0000   1.0000   1.0000   1.0000   1.0000   0.5871   0.0000   0.0000
     0.0000   0.0000   0.0000   0.0000   0.0000   0.0000

          k =-0.4000 0.4000 0.4000 (   765 PWs)   bands (ev):

   -90.6643 -88.3194 -50.7184 -50.4375 -50.3991 -47.8214 -47.5861 -47.5503
    -6.0748  -5.9810   6.0382   7.2359   8.8295   8.8400   9.3665   9.7695
    11.9275  12.7915  13.0964  14.2359  14.6571  15.1406  15.8241  15.9247
    17.5044  17.5840  18.0692  18.7932  23.2625  23.8935

     occupation numbers 
     1.0000   1.0000   1.0000   1.0000   1.0000   1.0000   1.0000   1.0000
     1.0000   1.0000   1.0000   1.0000   1.0000   1.0000   1.0000   1.0000
     1.0000   1.0000   1.0000   1.0000   1.0000   0.9957   0.0000   0.0000
     0.0000   0.0000   0.0000   0.0000   0.0000   0.0000

          k =-0.1000 0.3000 0.3000 (   756 PWs)   bands (ev):

   -90.6567 -88.3123 -50.5758 -50.4245 -50.1410 -47.7368 -47.4782 -47.2641
    -6.5138  -6.1471   6.8506   7.8560   8.9790   9.3442   9.9216   9.9440
    12.3188  12.7130  13.0591  14.1862  14.2812  15.1032  15.5961  15.6757
    16.2498  17.0067  17.5986  19.7237  23.6196  26.4344

     occupation numbers 
     1.0000   1.0000   1.0000   1.0000   1.0000   1.0000   1.0000   1.0000
     1.0000   1.0000   1.0000   1.0000   1.0000   1.0000   1.0000   1.0000
     1.0000   1.0000   1.0000   1.0000   1.0000   0.9987   0.0177   0.0017
     0.0000   0.0000   0.0000   0.0000   0.0000   0.0000

          k = 0.2000 0.2000 0.2000 (   742 PWs)   bands (ev):

   -90.6447 -88.3014 -50.2936 -50.0183 -50.0183 -47.4359 -47.1600 -47.1600
    -6.6834  -6.3442   7.0859   8.5448   9.3841   9.3841  10.3693  10.3693
    12.8062  12.8062  12.8856  14.8347  14.8347  15.1243  15.5041  15.5041
    16.3461  17.3201  17.3201  17.3996  25.1707  27.5554

     occupation numbers 
     1.0000   1.0000   1.0000   1.0000   1.0000   1.0000   1.0000   1.0000
     1.0000   1.0000   1.0000   1.0000   1.0000   1.0000   1.0000   1.0000
     1.0000   1.0000   1.0000   1.0000   1.0000   0.9974   0.1252   0.1252
     0.0000   0.0000   0.0000   0.0000   0.0000   0.0000

          k =-1.0000 0.6000 0.6000 (   752 PWs)   bands (ev):

   -90.6536 -88.3095 -50.4328 -50.2925 -50.1101 -47.5848 -47.4532 -47.2474
    -6.3760  -6.2643   7.2113   7.4595   9.1113   9.2566   9.8708  10.1549
    12.3364  12.8749  13.2539  13.8814  14.2170  15.1698  15.6474  15.6705
    15.8498  17.5150  18.6558  19.4484  25.2243  25.5349

     occupation numbers 
     1.0000   1.0000   1.0000   1.0000   1.0000   1.0000   1.0000   1.0000
     1.0000   1.0000   1.0000   1.0000   1.0000   1.0000   1.0000   1.0000
     1.0000   1.0000   1.0000   1.0000   1.0000   0.9900   0.0042   0.0020
     0.0000   0.0000   0.0000   0.0000   0.0000   0.0000

          k =-0.7000 0.5000 0.5000 (   761 PWs)   bands (ev):

   -90.6607 -88.3162 -50.7145 -50.3280 -50.2961 -47.8400 -47.4559 -47.4427
    -6.0519  -5.9879   6.0436   7.2122   8.8766   8.8879   9.8924   9.8939
    11.8530  12.9636  13.2148  13.7486  14.2171  15.2676  15.9512  16.0148
    17.1475  17.6621  18.8484  19.2303  22.8674  23.6017

     occupation numbers 
     1.0000   1.0000   1.0000   1.0000   1.0000   1.0000   1.0000   1.0000
[...]
    12.4854  12.8774  13.0308  14.2430  14.4096  15.3724  15.7887  15.9141
    16.9751  17.5240  19.8102  20.7131  22.1283  23.7785

     occupation numbers 
     1.0000   1.0000   1.0000   1.0000   1.0000   1.0000   1.0000   1.0000
     1.0000   1.0000   1.0000   1.0000   1.0000   1.0000   1.0000   1.0000
     1.0000   1.0000   1.0000   1.0000   1.0000   0.5871   0.0000   0.0000
     0.0000   0.0000   0.0000   0.0000   0.0000   0.0000

          k =-0.3000 0.5000-0.3000 (   762 PWs)   bands (ev):

   -90.6613 -88.3165 -50.7161 -50.3675 -50.3432 -47.8891 -47.5275 -47.4676
    -6.1211  -5.9252   6.4905   7.4348   8.2511   8.9946   9.0756   9.5684
    12.1269  12.7181  13.2615  14.4674  14.6766  14.9207  15.7526  16.0976
    17.2979  17.4014  18.8797  19.4389  23.5543  24.0082

     occupation numbers 
     1.0000   1.0000   1.0000   1.0000   1.0000   1.0000   1.0000   1.0000
     1.0000   1.0000   1.0000   1.0000   1.0000   1.0000   1.0000   1.0000
     1.0000   1.0000   1.0000   1.0000   1.0000   1.0000   0.0001   0.0000
     0.0000   0.0000   0.0000   0.0000   0.0000   0.0000

          k =-0.1000 0.7000-0.5000 (   768 PWs)   bands (ev):

   -90.6658 -88.3207 -50.7706 -50.5792 -50.3964 -47.9326 -47.7422 -47.5777
    -5.9416  -5.9306   6.7861   7.2008   8.2029   8.4376   8.6764   8.8091
    12.6298  12.9682  13.1302  14.0991  14.4748  15.1923  15.8978  15.9238
    16.7220  17.3508  20.6991  21.4959  22.1413  23.2226

     occupation numbers 
     1.0000   1.0000   1.0000   1.0000   1.0000   1.0000   1.0000   1.0000
     1.0000   1.0000   1.0000   1.0000   1.0000   1.0000   1.0000   1.0000
     1.0000   1.0000   1.0000   1.0000   1.0000   0.9818   0.0000   0.0000
     0.0000   0.0000   0.0000   0.0000   0.0000   0.0000

          k = 0.2000 0.6000-0.6000 (   767 PWs)   bands (ev):

   -90.6650 -88.3200 -50.7791 -50.5818 -50.3519 -47.9352 -47.7233 -47.5325
    -5.9349  -5.9280   6.4091   7.3382   8.3572   8.4470   8.8562   9.0696
    12.4854  12.8774  13.0308  14.2430  14.4096  15.3724  15.7887  15.9141
    16.9751  17.5240  19.8102  20.7131  22.1283  23.7785

     occupation numbers 
     1.0000   1.0000   1.0000   1.0000   1.0000   1.0000   1.0000   1.0000
     1.0000   1.0000   1.0000   1.0000   1.0000   1.0000   1.0000   1.0000
     1.0000   1.0000   1.0000   1.0000   1.0000   0.5871   0.0000   0.0000
     0.0000   0.0000   0.0000   0.0000   0.0000   0.0000

          k = 0.5000 0.5000-0.7000 (   761 PWs)   bands (ev):

   -90.6607 -88.3163 -50.7145 -50.3280 -50.2961 -47.8400 -47.4560 -47.4428
    -6.0519  -5.9879   6.0436   7.2122   8.8766   8.8879   9.8924   9.8939
    11.8530  12.9636  13.2148  13.7486  14.2171  15.2676  15.9512  16.0148
    17.1475  17.6621  18.8484  19.2303  22.8674  23.6017

     occupation numbers 
     1.0000   1.0000   1.0000   1.0000   1.0000   1.0000   1.0000   1.0000
     1.0000   1.0000   1.0000   1.0000   1.0000   1.0000   1.0000   1.0000
     1.0000   1.0000   1.0000   1.0000   1.0000   0.9047   0.0000   0.0000
     0.0000   0.0000   0.0000   0.0000   0.0000   0.0000

          k =-0.7000 0.9000-0.3000 (   763 PWs)   bands (ev):

   -90.6629 -88.3182 -50.7365 -50.4541 -50.2767 -47.8311 -47.5968 -47.4119
    -6.1489  -6.0238   6.8680   6.9392   8.7492   8.9651   9.1584   9.6863
    12.4556  12.6079  12.9382  14.0721  14.4638  15.2622  15.6667  15.8835
    16.5896  17.1268  19.7234  20.1605  23.0963  23.7141

     occupation numbers 
     1.0000   1.0000   1.0000   1.0000   1.0000   1.0000   1.0000   1.0000
     1.0000   1.0000   1.0000   1.0000   1.0000   1.0000   1.0000   1.0000
     1.0000   1.0000   1.0000   1.0000   1.0000   0.9139   0.0023   0.0000
     0.0000   0.0000   0.0000   0.0000   0.0000   0.0000

          k =-0.4000 0.8000-0.4000 (   764 PWs)   bands (ev):

   -90.6636 -88.3187 -50.8855 -50.3691 -50.2696 -48.0135 -47.5240 -47.4092
    -6.1282  -5.9289   6.3957   7.0626   8.4769   8.8489   9.4623   9.8909
    12.0653  12.6526  13.1588  14.0741  14.5354  14.9984  15.6644  15.9496
    16.7372  17.5243  19.4890  20.7353  22.0818  23.6473

     occupation numbers 
     1.0000   1.0000   1.0000   1.0000   1.0000   1.0000   1.0000   1.0000
     1.0000   1.0000   1.0000   1.0000   1.0000   1.0000   1.0000   1.0000
     1.0000   1.0000   1.0000   1.0000   1.0000   1.0000   0.0024   0.0000
     0.0000   0.0000   0.0000   0.0000   0.0000   0.0000

          k = 0.3000-0.5000-0.1000 (   764 PWs)   bands (ev):

   -90.6631 -88.3183 -50.7225 -50.4427 -50.3527 -47.8747 -47.6003 -47.5109
    -6.2399  -5.9336   7.0779   7.1674   8.3930   8.6326   9.1368   9.4645
    12.5873  12.7863  12.9187  14.0285  14.5203  15.2658  15.5436  15.9376
    16.4780  17.2921  19.2296  20.7988  23.2148  24.5319

     occupation numbers 
     1.0000   1.0000   1.0000   1.0000   1.0000   1.0000   1.0000   1.0000
     1.0000   1.0000   1.0000   1.0000   1.0000   1.0000   1.0000   1.0000
     1.0000   1.0000   1.0000   1.0000   1.0000   0.9080   0.0595   0.0000
     0.0000   0.0000   0.0000   0.0000   0.0000   0.0000

          k = 0.6000-0.6000-0.2000 (   767 PWs)   bands (ev):

   -90.6650 -88.3200 -50.7791 -50.5818 -50.3519 -47.9352 -47.7233 -47.5325
    -5.9349  -5.9280   6.4091   7.3382   8.3572   8.4470   8.8562   9.0696
    12.4854  12.8774  13.0308  14.2430  14.4096  15.3724  15.7887  15.9141
    16.9751  17.5240  19.8102  20.7131  22.1283  23.7785

     occupation numbers 
     1.0000   1.0000   1.0000   1.0000   1.0000   1.0000   1.0000   1.0000
     1.0000   1.0000   1.0000   1.0000   1.0000   1.0000   1.0000   1.0000
     1.0000   1.0000   1.0000   1.0000   1.0000   0.5871   0.0000   0.0000
     0.0000   0.0000   0.0000   0.0000   0.0000   0.0000

          k = 0.9000-0.7000-0.3000 (   763 PWs)   bands (ev):

   -90.6629 -88.3182 -50.7365 -50.4541 -50.2767 -47.8311 -47.5968 -47.4119
    -6.1489  -6.0238   6.8680   6.9392   8.7492   8.9651   9.1584   9.6863
    12.4556  12.6079  12.9382  14.0721  14.4638  15.2622  15.6667  15.8835
    16.5896  17.1268  19.7234  20.1605  23.0963  23.7141

     occupation numbers 
     1.0000   1.0000   1.0000   1.0000   1.0000   1.0000   1.0000   1.0000
     1.0000   1.0000   1.0000   1.0000   1.0000   1.0000   1.0000   1.0000
     1.0000   1.0000   1.0000   1.0000   1.0000   0.9139   0.0023   0.0000
     0.0000   0.0000   0.0000   0.0000   0.0000   0.0000

          k =-0.3000-0.3000 0.1000 (   756 PWs)   bands (ev):

   -90.6567 -88.3123 -50.5758 -50.4245 -50.1410 -47.7369 -47.4782 -47.2641
    -6.5138  -6.1471   6.8506   7.8560   8.9790   9.3442   9.9216   9.9440
    12.3188  12.7131  13.0591  14.1862  14.2813  15.1032  15.5961  15.6757
    16.2498  17.0067  17.5986  19.7237  23.6196  26.4345

     occupation numbers 
     1.0000   1.0000   1.0000   1.0000   1.0000   1.0000   1.0000   1.0000
     1.0000   1.0000   1.0000   1.0000   1.0000   1.0000   1.0000   1.0000
     1.0000   1.0000   1.0000   1.0000   1.0000   0.9987   0.0177   0.0017
     0.0000   0.0000   0.0000   0.0000   0.0000   0.0000

          k = 0.0000-0.4000 0.0000 (   752 PWs)   bands (ev):

   -90.6530 -88.3091 -50.4798 -50.3582 -50.1175 -47.4891 -47.4356 -47.2382
    -6.5965  -6.0596   6.5960   8.1514   8.7064   8.8872  10.4537  10.4720
    12.5328  13.1677  13.1913  13.6376  13.8695  15.1133  15.7291  15.8972
    16.0005  17.5236  18.3790  19.9220  23.1308  25.3453

     occupation numbers 
     1.0000   1.0000   1.0000   1.0000   1.0000   1.0000   1.0000   1.0000
     1.0000   1.0000   1.0000   1.0000   1.0000   1.0000   1.0000   1.0000
     1.0000   1.0000   1.0000   1.0000   1.0000   0.9982   0.0002   0.0000
     0.0000   0.0000   0.0000   0.0000   0.0000   0.0000

          k = 0.2000-0.2000-0.2000 (   751 PWs)   bands (ev):

   -90.6518 -88.3079 -50.3935 -50.3262 -50.1773 -47.4666 -47.4306 -47.3040
    -6.6832  -5.9619   6.4604   8.4431   8.5895   9.0760  10.2617  10.2772
    12.6438  12.8664  13.1309  14.3402  14.4896  15.0828  15.7396  15.7657
    16.4477  17.0039  17.1098  20.2905  22.4477  25.6614

     occupation numbers 
     1.0000   1.0000   1.0000   1.0000   1.0000   1.0000   1.0000   1.0000
     1.0000   1.0000   1.0000   1.0000   1.0000   1.0000   1.0000   1.0000
     1.0000   1.0000   1.0000   1.0000   1.0000   0.9994   0.0002   0.0001
     0.0000   0.0000   0.0000   0.0000   0.0000   0.0000

          k = 0.5000-0.3000-0.3000 (   762 PWs)   bands (ev):

   -90.6613 -88.3165 -50.7161 -50.3675 -50.3432 -47.8891 -47.5275 -47.4676
    -6.1211  -5.9252   6.4905   7.4348   8.2511   8.9946   9.0756   9.5684
    12.1269  12.7181  13.2615  14.4674  14.6766  14.9207  15.7526  16.0976
    17.2979  17.4014  18.8797  19.4389  23.5543  24.0082

     occupation numbers 
     1.0000   1.0000   1.0000   1.0000   1.0000   1.0000   1.0000   1.0000
     1.0000   1.0000   1.0000   1.0000   1.0000   1.0000   1.0000   1.0000
     1.0000   1.0000   1.0000   1.0000   1.0000   1.0000   0.0001   0.0000
     0.0000   0.0000   0.0000   0.0000   0.0000   0.0000

          k = 0.8000-0.4000-0.4000 (   764 PWs)   bands (ev):

   -90.6636 -88.3187 -50.8855 -50.3691 -50.2696 -48.0135 -47.5240 -47.4092
    -6.1282  -5.9289   6.3957   7.0626   8.4769   8.8489   9.4623   9.8909
    12.0653  12.6526  13.1588  14.0741  14.5354  14.9984  15.6644  15.9496
    16.7372  17.5243  19.4890  20.7353  22.0818  23.6473

     occupation numbers 
     1.0000   1.0000   1.0000   1.0000   1.0000   1.0000   1.0000   1.0000
     1.0000   1.0000   1.0000   1.0000   1.0000   1.0000   1.0000   1.0000
     1.0000   1.0000   1.0000   1.0000   1.0000   1.0000   0.0024   0.0000
     0.0000   0.0000   0.0000   0.0000   0.0000   0.0000

          k =-0.4000 0.0000 0.0000 (   752 PWs)   bands (ev):

   -90.6530 -88.3091 -50.4798 -50.3582 -50.1175 -47.4891 -47.4356 -47.2382
    -6.5965  -6.0596   6.5960   8.1514   8.7064   8.8872  10.4537  10.4720
    12.5328  13.1677  13.1913  13.6376  13.8695  15.1133  15.7291  15.8972
    16.0005  17.5236  18.3790  19.9220  23.1308  25.3453

     occupation numbers 
     1.0000   1.0000   1.0000   1.0000   1.0000   1.0000   1.0000   1.0000
     1.0000   1.0000   1.0000   1.0000   1.0000   1.0000   1.0000   1.0000
     1.0000   1.0000   1.0000   1.0000   1.0000   0.9982   0.0002   0.0000
     0.0000   0.0000   0.0000   0.0000   0.0000   0.0000

          k =-0.1000-0.1000-0.1000 (   755 PWs)   bands (ev):

   -90.6562 -88.3120 -50.5339 -50.2607 -50.2607 -47.6274 -47.3632 -47.3632
    -6.9356  -6.0719   6.0119   8.8213   8.8213  10.1082  10.9936  10.9936
    12.5588  12.5588  12.9077  14.1718  14.1718  14.4571  15.2842  15.2842
    15.5600  17.4155  17.4155  18.1123  23.2597  27.0997

     occupation numbers 
     1.0000   1.0000   1.0000   1.0000   1.0000   1.0000   1.0000   1.0000
     1.0000   1.0000   1.0000   1.0000   1.0000   1.0000   1.0000   1.0000
     1.0000   1.0000   1.0000   1.0000   1.0000   1.0000   0.8722   0.8722
     0.0418   0.0000   0.0000   0.0000   0.0000   0.0000

     the Fermi energy is    15.3936 ev

!    total energy              =    -552.09844888 Ry
     estimated scf accuracy    <          7.0E-11 Ry
     smearing contrib. (-TS)   =      -0.00214729 Ry
     internal energy E=F+TS    =    -552.09630159 Ry

     The total energy is F=E-TS. E is the sum of the following terms:
     one-electron contribution =    -216.28912116 Ry
     hartree contribution      =     124.22205175 Ry
     xc contribution           =     -82.00519320 Ry
     ewald contribution        =    -378.02403899 Ry

     total magnetization       =     0.00 Bohr mag/cell
     absolute magnetization    =     6.63 Bohr mag/cell

     convergence has been achieved in  15 iterations

     Forces acting on atoms (cartesian axes, Ry/au):

     atom    1 type  1   force =    -0.00000018   -0.00000018   -0.00000018
     atom    2 type  2   force =     0.00000020    0.00000020    0.00000020
     atom    3 type  3   force =    -0.00000023   -0.00000022   -0.00000023
     atom    4 type  3   force =     0.00000020    0.00000020    0.00000020
     The non-local contrib.  to forces
     atom    1 type  1   force =     0.00000009    0.00000009    0.00000009
     atom    2 type  2   force =    -0.00000006   -0.00000006   -0.00000006
     atom    3 type  3   force =    -0.00000027   -0.00000027   -0.00000028
     atom    4 type  3   force =     0.00000021    0.00000021    0.00000021
     The ionic contribution  to forces
     atom    1 type  1   force =    -0.00000000   -0.00000000   -0.00000000
     atom    2 type  2   force =     0.00000000    0.00000000    0.00000000
     atom    3 type  3   force =    -0.00000000   -0.00000000   -0.00000000
     atom    4 type  3   force =     0.00000000    0.00000000    0.00000000
     The local contribution  to forces
     atom    1 type  1   force =     0.00000095    0.00000094    0.00000094
     atom    2 type  2   force =    -0.00000080   -0.00000081   -0.00000081
     atom    3 type  3   force =     0.00000689    0.00000689    0.00000690
     atom    4 type  3   force =    -0.00000661   -0.00000661   -0.00000662
     The core correction contribution to forces
     atom    1 type  1   force =     0.00000001    0.00000001    0.00000001
     atom    2 type  2   force =    -0.00000001   -0.00000001   -0.00000001
     atom    3 type  3   force =     0.00000004    0.00000004    0.00000004
     atom    4 type  3   force =    -0.00000004   -0.00000004   -0.00000004
     The Hubbard contrib.    to forces
     atom    1 type  1   force =     0.00000000    0.00000000    0.00000000
     atom    2 type  2   force =     0.00000000    0.00000000    0.00000000
     atom    3 type  3   force =     0.00000000    0.00000000    0.00000000
     atom    4 type  3   force =     0.00000000    0.00000000    0.00000000
     The SCF correction term to forces
     atom    1 type  1   force =    -0.00000125   -0.00000125   -0.00000124
     atom    2 type  2   force =     0.00000105    0.00000106    0.00000106
     atom    3 type  3   force =    -0.00000690   -0.00000690   -0.00000691
     atom    4 type  3   force =     0.00000663    0.00000662    0.00000663

     Total force =     0.000001     Total SCF correction =     0.000017
     SCF correction compared to forces is large: reduce conv_thr to get better values


     Computing stress (Cartesian axis) and pressure

          total   stress  (Ry/bohr**3)                   (kbar)     P=   -15350.71
  -0.10435201   0.00018887   0.00018887       -15350.71       27.78       27.78
   0.00018887  -0.10435201   0.00018887           27.78   -15350.71       27.78
   0.00018887   0.00018887  -0.10435201           27.78       27.78   -15350.71

     kinetic stress (kbar)  83371.83    253.80    253.80
                              253.80  83371.83    253.80
                              253.80    253.80  83371.83

     local   stress (kbar) -28219.40   -207.93   -207.93
                             -207.93 -28219.40   -207.93
                             -207.93   -207.93 -28219.40

     nonloc. stress (kbar) -12715.73    -68.95    -68.95
                              -68.95 -12715.73    -68.95
                              -68.95    -68.95 -12715.73

     hartree stress (kbar)  22176.01     52.45     52.45
                               52.45  22176.01     52.45
                               52.45     52.45  22176.01

     exc-cor stress (kbar)  -1078.26      0.00      0.00
                                0.00  -1078.26      0.00
                                0.00      0.00  -1078.26

     corecor stress (kbar) -11400.65     -1.58     -1.58
                               -1.58 -11400.65     -1.58
                               -1.58     -1.58 -11400.65

     ewald   stress (kbar) -67484.51     -0.00     -0.00
                               -0.00 -67484.51     -0.00
                               -0.00     -0.00 -67484.51

     hubbard stress (kbar)      0.00      0.00      0.00
                                0.00      0.00      0.00
                                0.00      0.00      0.00

     DFT-D   stress (kbar)      0.00      0.00      0.00
                                0.00      0.00      0.00
                                0.00      0.00      0.00

     XDM     stress (kbar)      0.00      0.00      0.00
                                0.00      0.00      0.00
                                0.00      0.00      0.00

     dft-nl  stress (kbar)      0.00      0.00      0.00
                                0.00      0.00      0.00
                                0.00      0.00      0.00

     TS-vdW  stress (kbar)      0.00      0.00      0.00
                                0.00      0.00      0.00
                                0.00      0.00      0.00

     MDB     stress (kbar)      0.00      0.00      0.00
                                0.00      0.00      0.00
                                0.00      0.00      0.00

     3D-RISM stress (kbar)      0.00      0.00      0.00
                                0.00      0.00      0.00
                                0.00      0.00      0.00


     Writing all to output data dir ./out/feo_af.save/ :
     XML data file, charge density, pseudopotentials, collected wavefunctions

     init_run     :      4.44s CPU      4.49s WALL (       1 calls)
     electrons    :    170.92s CPU    171.44s WALL (       1 calls)
     forces       :      1.24s CPU      1.24s WALL (       1 calls)
     stress       :      5.68s CPU      5.68s WALL (       1 calls)

     Called by init_run:
     wfcinit      :      3.90s CPU      3.94s WALL (       1 calls)
     wfcinit:atom :      0.03s CPU      0.03s WALL (     250 calls)
     wfcinit:wfcr :      3.80s CPU      3.83s WALL (     250 calls)
     potinit      :      0.20s CPU      0.20s WALL (       1 calls)
     hinit0       :      0.33s CPU      0.33s WALL (       1 calls)

     Called by electrons:
     c_bands      :    148.29s CPU    148.71s WALL (      15 calls)
     sum_band     :     22.27s CPU     22.35s WALL (      15 calls)
     v_of_rho     :      0.25s CPU      0.27s WALL (      16 calls)
     v_h          :      0.02s CPU      0.02s WALL (      16 calls)
     v_xc         :      0.26s CPU      0.28s WALL (      18 calls)
     mix_rho      :      0.06s CPU      0.06s WALL (      15 calls)

     Called by c_bands:
     init_us_2    :      1.80s CPU      1.81s WALL (    8250 calls)
     cegterg      :    144.55s CPU    144.96s WALL (    3750 calls)

     Called by sum_band:
     sum_band:wei :      0.04s CPU      0.04s WALL (      15 calls)
     sum_band:loo :     22.20s CPU     22.28s WALL (      15 calls)
     sum_band:buf :      0.09s CPU      0.09s WALL (    3750 calls)
     sum_band:ini :      0.84s CPU      0.85s WALL (    3750 calls)

     Called by *egterg:
     cdiaghg      :      7.01s CPU      7.03s WALL (   11838 calls)
     cegterg:over :      9.38s CPU      9.41s WALL (    8088 calls)
     cegterg:upda :      4.27s CPU      4.28s WALL (    8088 calls)
     cegterg:last :      8.40s CPU      8.42s WALL (    7081 calls)
     h_psi        :    114.20s CPU    114.55s WALL (   12088 calls)
     g_psi        :      0.31s CPU      0.31s WALL (    8088 calls)

     Called by h_psi:
     h_psi:calbec :      9.74s CPU      9.77s WALL (   12088 calls)
     vloc_psi     :     95.80s CPU     96.11s WALL (   12088 calls)
     add_vuspsi   :      8.42s CPU      8.45s WALL (   12088 calls)

     General routines
     calbec       :     11.07s CPU     11.10s WALL (   13338 calls)
     fft          :      0.22s CPU      0.22s WALL (     146 calls)
     ffts         :      0.15s CPU      0.15s WALL (      62 calls)
     fftw         :     98.38s CPU     98.71s WALL (  629142 calls)
     interpolate  :      0.17s CPU      0.17s WALL (      32 calls)

     Parallel routines

     PWSCF        :   3m 2.36s CPU   3m 3.01s WALL


   This run was terminated on:   1:49:33  20Sep2024            

=------------------------------------------------------------------------------=
   JOB DONE.
=------------------------------------------------------------------------------=
