
     Program PROJWFC v.7.3.1 starts on 19Sep2024 at 14:49:22 

     This program is part of the open-source Quantum ESPRESSO suite
     for quantum simulation of materials; please cite
         "P. Giannozzi et al., J. Phys.:Condens. Matter 21 395502 (2009);
         "P. Giannozzi et al., J. Phys.:Condens. Matter 29 465901 (2017);
         "P. Giannozzi et al., J. Chem. Phys. 152 154105 (2020);
          URL http://www.quantum-espresso.org", 
     in publications or presentations arising from this work. More details at
     http://www.quantum-espresso.org/quote

     Parallel version (MPI), running on     1 processors

     MPI processes distributed on     1 nodes
     1074 MiB available memory on the printing compute node when the environment starts


     Reading xml data from directory:

     ./out/feo_af.save/
     Message from routine volume:
     axis vectors are left-handed

     IMPORTANT: XC functional enforced from input :
     Exchange-correlation= PW
                           (   1   4   0   0   0   0   0)
     Any further DFT definition will be discarded
     Please, verify this is what you really want


     G-vector sticks info
     --------------------
     sticks:   dense  smooth     PW     G-vecs:    dense   smooth      PW
     Sum        1061     539    171                17255     6111    1141

     Using Slab Decomposition


     Check: negative core charge=   -0.000037

     Gaussian broadening (read from input): ngauss,degauss=   0    0.010000


     Calling projwave .... 
     Subspace diagonalization in iterative solution of the eigenvalue problem:
     a serial algorithm will be used


  Problem Sizes 
  natomwfc =           28
  nbnd     =           26
  nkstot   =           54
  npwx     =          767
  nkb      =           62


     Atomic states used for projection
     (read from pseudopotential files):

     state #   1: atom   1 (Fe1), wfc  1 (l=0 m= 1)
     state #   2: atom   1 (Fe1), wfc  2 (l=1 m= 1)
     state #   3: atom   1 (Fe1), wfc  2 (l=1 m= 2)
     state #   4: atom   1 (Fe1), wfc  2 (l=1 m= 3)
     state #   5: atom   1 (Fe1), wfc  3 (l=2 m= 1)
     state #   6: atom   1 (Fe1), wfc  3 (l=2 m= 2)
     state #   7: atom   1 (Fe1), wfc  3 (l=2 m= 3)
     state #   8: atom   1 (Fe1), wfc  3 (l=2 m= 4)
     state #   9: atom   1 (Fe1), wfc  3 (l=2 m= 5)
     state #  10: atom   1 (Fe1), wfc  4 (l=0 m= 1)
     state #  11: atom   2 (Fe2), wfc  1 (l=0 m= 1)
     state #  12: atom   2 (Fe2), wfc  2 (l=1 m= 1)
     state #  13: atom   2 (Fe2), wfc  2 (l=1 m= 2)
     state #  14: atom   2 (Fe2), wfc  2 (l=1 m= 3)
     state #  15: atom   2 (Fe2), wfc  3 (l=2 m= 1)
     state #  16: atom   2 (Fe2), wfc  3 (l=2 m= 2)
     state #  17: atom   2 (Fe2), wfc  3 (l=2 m= 3)
     state #  18: atom   2 (Fe2), wfc  3 (l=2 m= 4)
     state #  19: atom   2 (Fe2), wfc  3 (l=2 m= 5)
     state #  20: atom   2 (Fe2), wfc  4 (l=0 m= 1)
     state #  21: atom   3 (O  ), wfc  1 (l=0 m= 1)
     state #  22: atom   3 (O  ), wfc  2 (l=1 m= 1)
     state #  23: atom   3 (O  ), wfc  2 (l=1 m= 2)
     state #  24: atom   3 (O  ), wfc  2 (l=1 m= 3)
     state #  25: atom   4 (O  ), wfc  1 (l=0 m= 1)
     state #  26: atom   4 (O  ), wfc  2 (l=1 m= 1)
     state #  27: atom   4 (O  ), wfc  2 (l=1 m= 2)
     state #  28: atom   4 (O  ), wfc  2 (l=1 m= 3)

 k =   0.0000000000  0.0000000000  0.0000000000
==== e(   1) =   -90.84575 eV ==== 
     psi = 0.984*[#   1]+0.010*[#  20]
    |psi|^2 = 0.999
==== e(   2) =   -88.45399 eV ==== 
     psi = 0.983*[#  11]+0.010*[#  10]
    |psi|^2 = 0.998
==== e(   3) =   -50.57803 eV ==== 
     psi = 0.295*[#   3]+0.295*[#   4]+0.037*[#  13]+0.037*[#  14]
    |psi|^2 = 0.668
==== e(   4) =   -50.28129 eV ==== 
     psi = 0.250*[#   3]+0.077*[#   4]+0.018*[#  13]+0.006*[#  14]
    |psi|^2 = 0.352
==== e(   5) =   -50.28129 eV ==== 
     psi = 0.544*[#   4]+0.371*[#   3]+0.040*[#  14]+0.027*[#  13]+0.017*[#   2]
          +0.001*[#  12]
    |psi|^2 = 0.999
==== e(   6) =   -46.91410 eV ==== 
     psi = 0.371*[#   2]+0.296*[#  13]+0.296*[#  14]+0.037*[#   3]+0.037*[#   4]
          +0.027*[#  12]
    |psi|^2 = 1.064
==== e(   7) =   -46.87420 eV ==== 
     psi = 0.296*[#  12]+0.200*[#  14]+0.115*[#  13]+0.037*[#   2]+0.015*[#   4]
          +0.008*[#   3]
    |psi|^2 = 0.670
==== e(   8) =   -46.87420 eV ==== 
     psi = 0.506*[#  13]+0.421*[#  14]+0.296*[#  12]+0.037*[#   2]+0.037*[#   3]
          +0.031*[#   4]
    |psi|^2 = 1.329
==== e(   9) =    -6.96630 eV ==== 
     psi = 0.318*[#  21]+0.318*[#  25]+0.183*[#  10]+0.174*[#  20]+0.003*[#   1]
          +0.003*[#  11]
    |psi|^2 = 0.999
==== e(  10) =    -5.93529 eV ==== 
     psi = 0.497*[#  21]+0.497*[#  25]
    |psi|^2 = 0.995
==== e(  11) =     5.62347 eV ==== 
     psi = 0.137*[#  10]+0.121*[#  20]+0.098*[#  23]+0.098*[#  24]+0.098*[#  27]
          +0.098*[#  28]+0.031*[#   6]+0.031*[#   7]+0.031*[#   9]+0.018*[#  16]
          +0.018*[#  17]+0.018*[#  19]
    |psi|^2 = 0.802
==== e(  12) =     8.67550 eV ==== 
     psi = 0.197*[#  24]+0.197*[#  28]+0.185*[#   8]+0.080*[#  18]+0.067*[#   5]
          +0.046*[#  23]+0.046*[#  27]+0.029*[#  15]+0.018*[#   6]+0.007*[#  16]
          +0.005*[#   9]+0.004*[#   7]+0.002*[#  19]+0.002*[#  17]
    |psi|^2 = 0.884
==== e(  13) =     8.67550 eV ==== 
     psi = 0.185*[#   5]+0.151*[#  23]+0.151*[#  27]+0.145*[#  22]+0.145*[#  26]
          +0.080*[#  15]+0.067*[#   8]+0.029*[#  18]+0.014*[#   7]+0.013*[#   9]
          +0.005*[#  17]+0.005*[#  19]
    |psi|^2 = 0.988
==== e(  14) =    11.51409 eV ==== 
     psi = 0.164*[#  23]+0.164*[#  24]+0.164*[#  27]+0.164*[#  28]+0.151*[#  22]
          +0.151*[#  26]
    |psi|^2 = 0.957
==== e(  15) =    11.54477 eV ==== 
     psi = 0.317*[#  24]+0.317*[#  28]+0.164*[#  22]+0.164*[#  26]+0.038*[#  23]
          +0.038*[#  27]
    |psi|^2 = 1.038
==== e(  16) =    11.54477 eV ==== 
     psi = 0.289*[#  23]+0.289*[#  27]+0.164*[#  22]+0.164*[#  26]+0.010*[#  24]
          +0.010*[#  28]
    |psi|^2 = 0.926
==== e(  17) =    12.66119 eV ==== 
     psi = 0.520*[#   9]+0.369*[#   7]+0.048*[#   5]+0.013*[#   6]+0.008*[#   8]
          +0.006*[#  15]+0.004*[#  19]+0.003*[#  17]
    |psi|^2 = 0.973
==== e(  18) =    12.66119 eV ==== 
     psi = 0.588*[#   6]+0.232*[#   7]+0.081*[#   9]+0.048*[#   8]+0.008*[#   5]
          +0.006*[#  18]+0.004*[#  16]+0.002*[#  17]
    |psi|^2 = 0.973
==== e(  19) =    13.26012 eV ==== 
     psi = 0.288*[#   6]+0.288*[#   7]+0.288*[#   9]+0.019*[#  10]+0.011*[#  23]
          +0.011*[#  24]+0.011*[#  27]+0.011*[#  28]+0.004*[#  16]+0.004*[#  17]
          +0.004*[#  19]+0.002*[#  21]+0.002*[#  25]+0.001*[#  20]
    |psi|^2 = 0.944
==== e(  20) =    13.44379 eV ==== 
     psi = 0.315*[#  10]+0.300*[#  20]+0.179*[#  21]+0.179*[#  25]+0.004*[#  11]
          +0.003*[#   1]+0.002*[#   6]+0.002*[#   7]+0.002*[#   9]
    |psi|^2 = 0.991
==== e(  21) =    14.58729 eV ==== 
     psi = 0.511*[#   8]+0.087*[#  16]+0.075*[#   5]+0.051*[#  24]+0.051*[#  28]
          +0.047*[#  18]+0.035*[#  17]+0.022*[#   6]+0.021*[#  23]+0.021*[#  27]
          +0.011*[#  19]+0.009*[#   7]+0.007*[#  15]+0.007*[#  22]+0.007*[#  26]
          +0.003*[#   9]
    |psi|^2 = 0.964
==== e(  22) =    14.58729 eV ==== 
     psi = 0.511*[#   5]+0.078*[#  19]+0.075*[#   8]+0.054*[#  17]+0.047*[#  15]
          +0.031*[#  23]+0.031*[#  27]+0.021*[#  22]+0.021*[#  26]+0.020*[#   9]
          +0.014*[#   7]+0.007*[#  18]+0.002*[#  16]+0.001*[#  24]+0.001*[#  28]
          
    |psi|^2 = 0.914
==== e(  23) =    15.60164 eV ==== 
     psi = 0.423*[#  17]+0.339*[#  16]+0.092*[#  18]+0.067*[#   8]+0.046*[#  22]
          +0.046*[#  26]+0.006*[#  23]+0.006*[#  27]+0.005*[#  24]+0.005*[#  28]
          +0.005*[#  19]
    |psi|^2 = 1.042
==== e(  24) =    15.60164 eV ==== 
     psi = 0.506*[#  19]+0.172*[#  16]+0.092*[#  15]+0.088*[#  17]+0.067*[#   5]
          +0.031*[#  22]+0.031*[#  26]+0.003*[#  24]+0.003*[#  28]+0.001*[#  23]
          +0.001*[#  27]
    |psi|^2 = 0.999
==== e(  25) =    15.85166 eV ==== 
     psi = 0.291*[#  16]+0.291*[#  17]+0.291*[#  19]+0.011*[#  22]+0.011*[#  23]
          +0.011*[#  24]+0.011*[#  26]+0.011*[#  27]+0.011*[#  28]+0.004*[#  20]
          +0.001*[#  10]
    |psi|^2 = 0.951
==== e(  26) =    17.47461 eV ==== 
     psi = 0.682*[#  18]+0.064*[#  23]+0.064*[#  27]+0.046*[#  24]+0.046*[#  28]
          +0.020*[#  17]+0.018*[#  15]+0.014*[#  16]+0.011*[#   8]+0.003*[#   7]
          +0.002*[#   6]+0.002*[#  22]+0.002*[#  26]
    |psi|^2 = 0.973

 k =   0.5000000000 -0.1666666667 -0.1666666667
==== e(   1) =   -90.86585 eV ==== 
     psi = 0.988*[#   1]+0.004*[#  20]+0.003*[#  10]
    |psi|^2 = 0.999
==== e(   2) =   -88.47349 eV ==== 
     psi = 0.988*[#  11]+0.004*[#  10]+0.003*[#  20]
    |psi|^2 = 0.998
==== e(   3) =   -50.79788 eV ==== 
     psi = 0.438*[#   3]+0.278*[#   4]+0.001*[#  14]
    |psi|^2 = 0.721
==== e(   4) =   -50.58391 eV ==== 
     psi = 0.556*[#   3]+0.218*[#   4]+0.002*[#  13]+0.002*[#  14]
    |psi|^2 = 0.781
==== e(   5) =   -50.39533 eV ==== 
     psi = 0.498*[#   2]+0.498*[#   4]
    |psi|^2 = 0.999
==== e(   6) =   -47.87562 eV ==== 
     psi = 0.364*[#  13]+0.315*[#  14]+0.001*[#   4]
    |psi|^2 = 0.683
==== e(   7) =   -47.71976 eV ==== 
     psi = 0.630*[#  13]+0.315*[#  12]+0.181*[#  14]+0.003*[#   3]+0.001*[#   2]
          +0.001*[#   4]
    |psi|^2 = 1.133
==== e(   8) =   -47.45611 eV ==== 
     psi = 0.498*[#  14]+0.364*[#  12]
    |psi|^2 = 0.865
==== e(   9) =    -6.27454 eV ==== 
     psi = 0.410*[#  21]+0.410*[#  25]+0.084*[#  10]+0.080*[#  20]+0.005*[#   8]
          +0.004*[#  18]+0.002*[#   5]+0.001*[#  15]
    |psi|^2 = 0.999
==== e(  10) =    -5.87322 eV ==== 
     psi = 0.475*[#  21]+0.475*[#  25]+0.019*[#   8]+0.016*[#  18]+0.006*[#   5]
          +0.005*[#  15]
    |psi|^2 = 1.000
==== e(  11) =     7.14489 eV ==== 
     psi = 0.161*[#  24]+0.161*[#  28]+0.135*[#  10]+0.078*[#   7]+0.045*[#  20]
          +0.027*[#  17]+0.015*[#  18]+0.013*[#   8]+0.008*[#  23]+0.008*[#  27]
          +0.005*[#  15]+0.004*[#   5]+0.002*[#  21]+0.002*[#  25]
    |psi|^2 = 0.668
==== e(  12) =     7.32433 eV ==== 
     psi = 0.241*[#  23]+0.241*[#  27]+0.123*[#  20]+0.063*[#  10]+0.056*[#   8]
          +0.036*[#  24]+0.036*[#  28]+0.019*[#   5]+0.018*[#  21]+0.018*[#  25]
          +0.015*[#  18]+0.014*[#   6]+0.014*[#   9]+0.008*[#  17]+0.005*[#  15]
          +0.004*[#  16]+0.004*[#  19]+0.001*[#  11]
    |psi|^2 = 0.918
==== e(  13) =     7.76202 eV ==== 
     psi = 0.402*[#  23]+0.402*[#  27]+0.046*[#   6]+0.046*[#   9]+0.024*[#  16]
          +0.024*[#  19]+0.001*[#   8]
    |psi|^2 = 0.951
==== e(  14) =     8.97750 eV ==== 
     psi = 0.402*[#  22]+0.402*[#  26]+0.207*[#   5]+0.162*[#  24]+0.162*[#  28]
          +0.069*[#   8]+0.041*[#  15]+0.014*[#  18]
    |psi|^2 = 1.464
==== e(  15) =     9.43404 eV ==== 
     psi = 0.162*[#  22]+0.162*[#  26]+0.148*[#  24]+0.148*[#  28]+0.070*[#   8]
          +0.066*[#  23]+0.066*[#  27]+0.035*[#  18]+0.033*[#   7]+0.025*[#  17]
          +0.023*[#   5]+0.012*[#   6]+0.012*[#   9]+0.012*[#  15]+0.008*[#  16]
          +0.008*[#  19]+0.004*[#  20]+0.002*[#  21]+0.002*[#  25]
    |psi|^2 = 0.999
==== e(  16) =     9.95834 eV ==== 
     psi = 0.195*[#  24]+0.195*[#  28]+0.058*[#  15]+0.034*[#   6]+0.034*[#   9]
          +0.024*[#   5]+0.019*[#  18]+0.010*[#  16]+0.010*[#  19]+0.008*[#   8]
          
    |psi|^2 = 0.587
==== e(  17) =    12.39664 eV ==== 
     psi = 0.785*[#   7]+0.061*[#   8]+0.020*[#   5]+0.013*[#  10]+0.011*[#  17]
          +0.011*[#  22]+0.011*[#  24]+0.011*[#  26]+0.011*[#  28]+0.008*[#   6]
          +0.008*[#   9]+0.004*[#  21]+0.004*[#  25]+0.001*[#  20]
    |psi|^2 = 0.964
==== e(  18) =    12.95856 eV ==== 
     psi = 0.423*[#   6]+0.423*[#   9]+0.055*[#   5]+0.018*[#   8]+0.016*[#  15]
          +0.009*[#  24]+0.009*[#  28]+0.005*[#  18]+0.001*[#  16]+0.001*[#  19]
          
    |psi|^2 = 0.963
==== e(  19) =    13.08533 eV ==== 
     psi = 0.409*[#   6]+0.408*[#   9]+0.046*[#  23]+0.046*[#  27]+0.012*[#  24]
          +0.012*[#  28]+0.009*[#  22]+0.009*[#  26]+0.006*[#   7]+0.006*[#  10]
          +0.003*[#  20]+0.002*[#   8]+0.001*[#  17]+0.001*[#  21]+0.001*[#  25]
          
    |psi|^2 = 0.973
==== e(  20) =    14.19191 eV ==== 
     psi = 0.423*[#   5]+0.141*[#   8]+0.066*[#  24]+0.066*[#  28]+0.039*[#  15]
          +0.030*[#   6]+0.030*[#   9]+0.016*[#  16]+0.016*[#  19]+0.013*[#  18]
          
    |psi|^2 = 0.842
==== e(  21) =    14.23036 eV ==== 
     psi = 0.458*[#   8]+0.153*[#   5]+0.062*[#  20]+0.039*[#   7]+0.038*[#  17]
          +0.029*[#  22]+0.029*[#  24]+0.029*[#  26]+0.029*[#  28]+0.024*[#  21]
          +0.024*[#  25]+0.021*[#  18]+0.018*[#  23]+0.018*[#  27]+0.007*[#  15]
          +0.001*[#  10]
    |psi|^2 = 0.981
==== e(  22) =    14.88936 eV ==== 
     psi = 0.747*[#  17]+0.037*[#  18]+0.028*[#  20]+0.018*[#  22]+0.018*[#  26]
          +0.017*[#   7]+0.013*[#   8]+0.012*[#  15]+0.013*[#  24]+0.013*[#  28]
          +0.006*[#  10]+0.006*[#  21]+0.006*[#  25]+0.004*[#   5]
    |psi|^2 = 0.941
==== e(  23) =    15.79651 eV ==== 
     psi = 0.444*[#  16]+0.444*[#  19]+0.027*[#  23]+0.027*[#  27]+0.013*[#  22]
          +0.013*[#  26]+0.005*[#  24]+0.005*[#  28]+0.004*[#  10]+0.004*[#  17]
          +0.001*[#  20]
    |psi|^2 = 0.986
==== e(  24) =    16.01090 eV ==== 
     psi = 0.452*[#  16]+0.452*[#  19]+0.012*[#  24]+0.012*[#  28]+0.008*[#   5]
          +0.005*[#  15]+0.003*[#   8]+0.002*[#  18]+0.001*[#   6]+0.001*[#   9]
          
    |psi|^2 = 0.948
==== e(  25) =    16.36628 eV ==== 
     psi = 0.396*[#  18]+0.187*[#  10]+0.132*[#  15]+0.058*[#  17]+0.037*[#  21]
          +0.037*[#  25]+0.028*[#  20]+0.021*[#  22]+0.021*[#  24]+0.021*[#  26]
          +0.021*[#  28]+0.004*[#   8]+0.003*[#  23]+0.003*[#  27]+0.001*[#   5]
          
    |psi|^2 = 0.972
==== e(  26) =    16.98908 eV ==== 
     psi = 0.570*[#  15]+0.190*[#  18]+0.045*[#  22]+0.045*[#  24]+0.045*[#  26]
          +0.045*[#  28]+0.018*[#   5]+0.006*[#   8]+0.004*[#  16]+0.004*[#  19]
          
    |psi|^2 = 0.970

 k =  -0.5000000000  0.1666666667  0.1666666667
==== e(   1) =   -90.86585 eV ==== 
     psi = 0.988*[#   1]+0.004*[#  20]+0.003*[#  10]
    |psi|^2 = 0.999
==== e(   2) =   -88.47349 eV ==== 
     psi = 0.988*[#  11]+0.004*[#  10]+0.003*[#  20]
    |psi|^2 = 0.998
==== e(   3) =   -50.79788 eV ==== 
     psi = 0.438*[#   3]+0.278*[#   4]+0.001*[#  14]
    |psi|^2 = 0.721
==== e(   4) =   -50.58391 eV ==== 
     psi = 0.556*[#   3]+0.218*[#   4]+0.002*[#  13]+0.002*[#  14]
    |psi|^2 = 0.781
==== e(   5) =   -50.39533 eV ==== 
     psi = 0.498*[#   2]+0.498*[#   4]
    |psi|^2 = 0.999
==== e(   6) =   -47.87562 eV ==== 
     psi = 0.364*[#  13]+0.315*[#  14]+0.001*[#   4]
    |psi|^2 = 0.683
==== e(   7) =   -47.71976 eV ==== 
     psi = 0.630*[#  13]+0.315*[#  12]+0.181*[#  14]+0.003*[#   3]+0.001*[#   2]
          +0.001*[#   4]
    |psi|^2 = 1.133
==== e(   8) =   -47.45611 eV ==== 
     psi = 0.498*[#  14]+0.364*[#  12]
    |psi|^2 = 0.865
==== e(   9) =    -6.27454 eV ==== 
     psi = 0.410*[#  21]+0.410*[#  25]+0.084*[#  10]+0.080*[#  20]+0.005*[#   8]
          +0.004*[#  18]+0.002*[#   5]+0.001*[#  15]
    |psi|^2 = 0.999
==== e(  10) =    -5.87322 eV ==== 
     psi = 0.475*[#  21]+0.475*[#  25]+0.019*[#   8]+0.016*[#  18]+0.006*[#   5]
          +0.005*[#  15]
    |psi|^2 = 1.000
==== e(  11) =     7.14489 eV ==== 
     psi = 0.161*[#  24]+0.161*[#  28]+0.135*[#  10]+0.078*[#   7]+0.045*[#  20]
          +0.027*[#  17]+0.015*[#  18]+0.013*[#   8]+0.008*[#  23]+0.008*[#  27]
          +0.005*[#  15]+0.004*[#   5]+0.002*[#  21]+0.002*[#  25]
    |psi|^2 = 0.668
==== e(  12) =     7.32433 eV ==== 
     psi = 0.241*[#  23]+0.241*[#  27]+0.123*[#  20]+0.063*[#  10]+0.056*[#   8]
          +0.036*[#  24]+0.036*[#  28]+0.019*[#   5]+0.018*[#  21]+0.018*[#  25]
          +0.015*[#  18]+0.014*[#   6]+0.014*[#   9]+0.008*[#  17]+0.005*[#  15]
          +0.004*[#  16]+0.004*[#  19]+0.001*[#  11]
    |psi|^2 = 0.918
==== e(  13) =     7.76202 eV ==== 
     psi = 0.402*[#  23]+0.402*[#  27]+0.046*[#   6]+0.046*[#   9]+0.024*[#  16]
          +0.024*[#  19]+0.001*[#   8]
    |psi|^2 = 0.951
==== e(  14) =     8.97750 eV ==== 
     psi = 0.402*[#  22]+0.402*[#  26]+0.207*[#   5]+0.162*[#  24]+0.162*[#  28]
          +0.069*[#   8]+0.041*[#  15]+0.014*[#  18]
    |psi|^2 = 1.464
==== e(  15) =     9.43404 eV ==== 
     psi = 0.162*[#  22]+0.162*[#  26]+0.148*[#  24]+0.148*[#  28]+0.070*[#   8]
          +0.066*[#  23]+0.066*[#  27]+0.035*[#  18]+0.033*[#   7]+0.025*[#  17]
          +0.023*[#   5]+0.012*[#   6]+0.012*[#   9]+0.012*[#  15]+0.008*[#  16]
          +0.008*[#  19]+0.004*[#  20]+0.002*[#  21]+0.002*[#  25]
    |psi|^2 = 0.999
==== e(  16) =     9.95834 eV ==== 
     psi = 0.195*[#  24]+0.195*[#  28]+0.058*[#  15]+0.034*[#   6]+0.034*[#   9]
          +0.024*[#   5]+0.019*[#  18]+0.010*[#  16]+0.010*[#  19]+0.008*[#   8]
          
    |psi|^2 = 0.587
==== e(  17) =    12.39664 eV ==== 
     psi = 0.785*[#   7]+0.061*[#   8]+0.020*[#   5]+0.013*[#  10]+0.011*[#  17]
          +0.011*[#  22]+0.011*[#  24]+0.011*[#  26]+0.011*[#  28]+0.008*[#   6]
          +0.008*[#   9]+0.004*[#  21]+0.004*[#  25]+0.001*[#  20]
    |psi|^2 = 0.964
==== e(  18) =    12.95856 eV ==== 
     psi = 0.423*[#   6]+0.423*[#   9]+0.055*[#   5]+0.018*[#   8]+0.016*[#  15]
          +0.009*[#  24]+0.009*[#  28]+0.005*[#  18]+0.001*[#  16]+0.001*[#  19]
          
    |psi|^2 = 0.963
==== e(  19) =    13.08533 eV ==== 
     psi = 0.409*[#   6]+0.408*[#   9]+0.046*[#  23]+0.046*[#  27]+0.012*[#  24]
          +0.012*[#  28]+0.009*[#  22]+0.009*[#  26]+0.006*[#   7]+0.006*[#  10]
          +0.003*[#  20]+0.002*[#   8]+0.001*[#  17]+0.001*[#  21]+0.001*[#  25]
          
    |psi|^2 = 0.973
==== e(  20) =    14.19191 eV ==== 
     psi = 0.423*[#   5]+0.141*[#   8]+0.066*[#  24]+0.066*[#  28]+0.039*[#  15]
          +0.030*[#   6]+0.030*[#   9]+0.016*[#  16]+0.016*[#  19]+0.013*[#  18]
          
    |psi|^2 = 0.842
==== e(  21) =    14.23036 eV ==== 
     psi = 0.458*[#   8]+0.153*[#   5]+0.062*[#  20]+0.039*[#   7]+0.038*[#  17]
          +0.029*[#  22]+0.029*[#  24]+0.029*[#  26]+0.029*[#  28]+0.024*[#  21]
          +0.024*[#  25]+0.021*[#  18]+0.018*[#  23]+0.018*[#  27]+0.007*[#  15]
          +0.001*[#  10]
    |psi|^2 = 0.981
==== e(  22) =    14.88936 eV ==== 
     psi = 0.747*[#  17]+0.037*[#  18]+0.028*[#  20]+0.018*[#  22]+0.018*[#  26]
          +0.017*[#   7]+0.013*[#   8]+0.012*[#  15]+0.013*[#  24]+0.013*[#  28]
          +0.006*[#  10]+0.006*[#  21]+0.006*[#  25]+0.004*[#   5]
    |psi|^2 = 0.941
==== e(  23) =    15.79651 eV ==== 
     psi = 0.444*[#  16]+0.444*[#  19]+0.027*[#  23]+0.027*[#  27]+0.013*[#  22]
          +0.013*[#  26]+0.005*[#  24]+0.005*[#  28]+0.004*[#  10]+0.004*[#  17]
          +0.001*[#  20]
    |psi|^2 = 0.986
==== e(  24) =    16.01090 eV ==== 
     psi = 0.452*[#  16]+0.452*[#  19]+0.012*[#  24]+0.012*[#  28]+0.008*[#   5]
          +0.005*[#  15]+0.003*[#   8]+0.002*[#  18]+0.001*[#   6]+0.001*[#   9]
          
    |psi|^2 = 0.948
==== e(  25) =    16.36628 eV ==== 
     psi = 0.396*[#  18]+0.187*[#  10]+0.132*[#  15]+0.058*[#  17]+0.037*[#  21]
          +0.037*[#  25]+0.028*[#  20]+0.021*[#  22]+0.021*[#  24]+0.021*[#  26]
          +0.021*[#  28]+0.004*[#   8]+0.003*[#  23]+0.003*[#  27]+0.001*[#   5]
          
    |psi|^2 = 0.972
==== e(  26) =    16.98908 eV ==== 
     psi = 0.570*[#  15]+0.190*[#  18]+0.045*[#  22]+0.045*[#  24]+0.045*[#  26]
          +0.045*[#  28]+0.018*[#   5]+0.006*[#   8]+0.004*[#  16]+0.004*[#  19]
          
    |psi|^2 = 0.970

 k =  -0.1666666667  0.5000000000 -0.1666666667
==== e(   1) =   -90.86585 eV ==== 
     psi = 0.988*[#   1]+0.004*[#  20]+0.003*[#  10]
    |psi|^2 = 0.999
==== e(   2) =   -88.47349 eV ==== 
     psi = 0.988*[#  11]+0.004*[#  10]+0.003*[#  20]
    |psi|^2 = 0.998
==== e(   3) =   -50.79788 eV ==== 
     psi = 0.438*[#   4]+0.278*[#   3]+0.001*[#  13]
    |psi|^2 = 0.721
==== e(   4) =   -50.58392 eV ==== 
     psi = 0.556*[#   4]+0.218*[#   3]+0.002*[#  14]+0.002*[#  13]
    |psi|^2 = 0.781
==== e(   5) =   -50.39533 eV ==== 
     psi = 0.498*[#   2]+0.498*[#   3]
    |psi|^2 = 0.999
==== e(   6) =   -47.87562 eV ==== 
     psi = 0.498*[#   2]+0.364*[#  14]+0.315*[#  13]+0.001*[#   3]
    |psi|^2 = 1.183
==== e(   7) =   -47.71976 eV ==== 
     psi = 0.630*[#  14]+0.315*[#  12]+0.181*[#  13]+0.003*[#   4]+0.001*[#   2]
          +0.001*[#   3]
    |psi|^2 = 1.133
==== e(   8) =   -47.45611 eV ==== 
     psi = 0.498*[#  13]+0.315*[#  12]+0.001*[#   2]
    |psi|^2 = 0.816
==== e(   9) =    -6.27454 eV ==== 
     psi = 0.410*[#  21]+0.410*[#  25]+0.084*[#  10]+0.080*[#  20]+0.005*[#   8]
          +0.004*[#  18]+0.002*[#   5]+0.001*[#  15]
    |psi|^2 = 0.999
==== e(  10) =    -5.87322 eV ==== 
     psi = 0.475*[#  21]+0.475*[#  25]+0.019*[#   8]+0.016*[#  18]+0.006*[#   5]
          +0.005*[#  15]
    |psi|^2 = 0.998
==== e(  11) =     7.14489 eV ==== 
     psi = 0.161*[#  23]+0.161*[#  27]+0.135*[#  10]+0.078*[#   6]+0.045*[#  20]
          +0.027*[#  16]+0.015*[#  18]+0.013*[#   8]+0.008*[#  24]+0.008*[#  28]
          +0.005*[#  15]+0.004*[#   5]+0.002*[#  21]+0.002*[#  25]
    |psi|^2 = 0.668
==== e(  12) =     7.32433 eV ==== 
     psi = 0.241*[#  24]+0.241*[#  28]+0.123*[#  20]+0.063*[#  10]+0.056*[#   8]
          +0.036*[#  23]+0.036*[#  27]+0.019*[#   5]+0.018*[#  21]+0.018*[#  25]
          +0.015*[#  18]+0.014*[#   7]+0.014*[#   9]+0.008*[#  16]+0.005*[#  15]
          +0.004*[#  17]+0.004*[#  19]+0.001*[#  11]
    |psi|^2 = 0.919
==== e(  13) =     7.76202 eV ==== 
     psi = 0.402*[#  24]+0.402*[#  28]+0.046*[#   7]+0.046*[#   9]+0.024*[#  17]
          +0.024*[#  19]+0.001*[#   8]
    |psi|^2 = 0.951
==== e(  14) =     8.97750 eV ==== 
     psi = 0.207*[#   5]+0.162*[#  23]+0.162*[#  27]+0.069*[#   8]+0.041*[#  15]
          +0.014*[#  18]
    |psi|^2 = 0.658
==== e(  15) =     9.43404 eV ==== 
     psi = 0.162*[#  22]+0.162*[#  26]+0.148*[#  23]+0.148*[#  27]+0.070*[#   8]
          +0.066*[#  24]+0.066*[#  28]+0.035*[#  18]+0.033*[#   6]+0.025*[#  16]
          +0.023*[#   5]+0.012*[#   7]+0.012*[#   9]+0.012*[#  15]+0.008*[#  17]
          +0.008*[#  19]+0.004*[#  20]+0.002*[#  21]+0.002*[#  25]
    |psi|^2 = 0.999
==== e(  16) =     9.95834 eV ==== 
     psi = 0.195*[#  23]+0.195*[#  27]+0.162*[#  22]+0.162*[#  26]+0.058*[#  15]
          +0.034*[#   7]+0.034*[#   9]+0.024*[#   5]+0.019*[#  18]+0.010*[#  17]
          +0.010*[#  19]+0.008*[#   8]
    |psi|^2 = 0.912
==== e(  17) =    12.39664 eV ==== 
     psi = 0.785*[#   6]+0.061*[#   8]+0.020*[#   5]+0.013*[#  10]+0.011*[#  16]
          +0.011*[#  22]+0.011*[#  23]+0.011*[#  26]+0.011*[#  27]+0.008*[#   7]
          +0.008*[#   9]+0.004*[#  21]+0.004*[#  25]+0.001*[#  20]
    |psi|^2 = 0.964
==== e(  18) =    12.95855 eV ==== 
     psi = 0.423*[#   7]+0.423*[#   9]+0.055*[#   5]+0.018*[#   8]+0.016*[#  15]
          +0.011*[#  22]+0.011*[#  26]+0.009*[#  23]+0.009*[#  27]+0.005*[#  18]
          +0.001*[#  17]+0.001*[#  19]
    |psi|^2 = 0.983
==== e(  19) =    13.08533 eV ==== 
     psi = 0.408*[#   7]+0.408*[#   9]+0.046*[#  24]+0.046*[#  28]+0.012*[#  23]
          +0.012*[#  27]+0.009*[#  22]+0.009*[#  26]+0.006*[#   6]+0.006*[#  10]
          +0.003*[#  20]+0.002*[#   8]+0.001*[#  16]+0.001*[#  21]+0.001*[#  25]
          
    |psi|^2 = 0.973
==== e(  20) =    14.19191 eV ==== 
     psi = 0.424*[#   5]+0.141*[#   8]+0.066*[#  23]+0.066*[#  27]+0.039*[#  15]
          +0.030*[#   7]+0.030*[#   9]+0.016*[#  17]+0.016*[#  19]+0.013*[#  18]
          +0.009*[#  22]+0.009*[#  26]
    |psi|^2 = 0.860
==== e(  21) =    14.23036 eV ==== 
     psi = 0.458*[#   8]+0.153*[#   5]+0.062*[#  20]+0.039*[#   6]+0.038*[#  16]
          +0.029*[#  22]+0.029*[#  23]+0.029*[#  26]+0.029*[#  27]+0.024*[#  21]
          +0.024*[#  25]+0.021*[#  18]+0.018*[#  24]+0.018*[#  28]+0.007*[#  15]
          +0.001*[#  10]
    |psi|^2 = 0.981
==== e(  22) =    14.88936 eV ==== 
     psi = 0.747*[#  16]+0.037*[#  18]+0.029*[#  22]+0.029*[#  26]+0.028*[#  20]
          +0.017*[#   6]+0.013*[#   8]+0.012*[#  15]+0.013*[#  23]+0.013*[#  27]
          +0.006*[#  10]+0.006*[#  21]+0.006*[#  25]+0.004*[#   5]
    |psi|^2 = 0.961
==== e(  23) =    15.79650 eV ==== 
     psi = 0.444*[#  17]+0.444*[#  19]+0.027*[#  24]+0.027*[#  28]+0.013*[#  22]
          +0.013*[#  26]+0.005*[#  23]+0.005*[#  27]+0.004*[#  10]+0.004*[#  16]
          +0.001*[#  20]
    |psi|^2 = 0.986
==== e(  24) =    16.01090 eV ==== 
     psi = 0.452*[#  17]+0.452*[#  19]+0.013*[#  22]+0.013*[#  26]+0.012*[#  23]
          +0.012*[#  27]+0.008*[#   5]+0.005*[#  15]+0.003*[#   8]+0.002*[#  18]
          +0.001*[#   7]+0.001*[#   9]
    |psi|^2 = 0.973
==== e(  25) =    16.36628 eV ==== 
     psi = 0.396*[#  18]+0.187*[#  10]+0.132*[#  15]+0.058*[#  16]+0.037*[#  21]
          +0.037*[#  25]+0.028*[#  20]+0.021*[#  22]+0.021*[#  23]+0.021*[#  26]
          +0.021*[#  27]+0.004*[#   8]+0.003*[#  24]+0.003*[#  28]+0.001*[#   5]
          
    |psi|^2 = 0.972
==== e(  26) =    16.98908 eV ==== 
     psi = 0.570*[#  15]+0.190*[#  18]+0.045*[#  22]+0.045*[#  23]+0.045*[#  26]
          +0.045*[#  27]+0.018*[#   5]+0.006*[#   8]+0.004*[#  17]+0.004*[#  19]
          
    |psi|^2 = 0.970

 k =   0.3333333333  0.3333333333 -0.3333333333
==== e(   1) =   -90.86291 eV ==== 
     psi = 0.989*[#   1]+0.003*[#  10]+0.002*[#  20]
    |psi|^2 = 0.999
==== e(   2) =   -88.47071 eV ==== 
     psi = 0.989*[#  11]+0.003*[#  20]+0.002*[#  10]
    |psi|^2 = 0.998
==== e(   3) =   -50.84908 eV ==== 
     psi = 0.225*[#   3]+0.225*[#   4]
    |psi|^2 = 0.454
==== e(   4) =   -50.37532 eV ==== 
     psi = 0.271*[#   3]+0.271*[#   4]+0.002*[#  13]+0.002*[#  14]
    |psi|^2 = 0.547
==== e(   5) =   -50.27154 eV ==== 
     psi = 0.497*[#   3]+0.497*[#   4]+0.002*[#  13]+0.002*[#  14]
    |psi|^2 = 0.999
==== e(   6) =   -47.93508 eV ==== 
     psi = 0.497*[#   2]+0.274*[#  13]+0.274*[#  14]+0.002*[#  12]
    |psi|^2 = 1.049
==== e(   7) =   -47.41853 eV ==== 
     psi = 0.448*[#  12]+0.223*[#  13]+0.223*[#  14]+0.003*[#   3]+0.003*[#   4]
          +0.001*[#   2]
    |psi|^2 = 0.902
==== e(   8) =   -47.31288 eV ==== 
     psi = 0.497*[#  13]+0.497*[#  14]+0.274*[#  12]+0.002*[#   3]+0.002*[#   4]
          
    |psi|^2 = 1.274
==== e(   9) =    -6.20516 eV ==== 
     psi = 0.428*[#  21]+0.427*[#  25]+0.074*[#  10]+0.067*[#  20]
    |psi|^2 = 0.999
==== e(  10) =    -5.95151 eV ==== 
     psi = 0.453*[#  25]+0.453*[#  21]+0.032*[#   5]+0.027*[#  15]+0.017*[#  20]
          +0.014*[#  10]
    |psi|^2 = 0.999
==== e(  11) =     6.76736 eV ==== 
     psi = 0.122*[#  10]+0.102*[#  23]+0.102*[#  24]+0.102*[#  27]+0.102*[#  28]
          +0.089*[#  20]+0.033*[#   9]+0.025*[#   6]+0.025*[#   7]+0.023*[#  21]
          +0.023*[#  25]+0.015*[#  16]+0.015*[#  17]+0.012*[#  19]+0.002*[#  11]
          +0.001*[#   1]
    |psi|^2 = 0.792
==== e(  12) =     7.16542 eV ==== 
     psi = 0.045*[#  20]+0.044*[#  10]+0.017*[#   6]+0.017*[#   7]+0.014*[#   5]
          +0.014*[#  23]+0.014*[#  24]+0.014*[#  27]+0.014*[#  28]+0.007*[#  16]
          +0.007*[#  17]+0.005*[#  15]+0.002*[#   9]+0.002*[#  19]+0.001*[#  21]
          +0.001*[#  25]
    |psi|^2 = 0.219
==== e(  13) =     8.71672 eV ==== 
     psi = 0.163*[#  23]+0.163*[#  24]+0.163*[#  27]+0.163*[#  28]+0.074*[#   5]
          +0.072*[#   9]+0.052*[#  22]+0.052*[#  26]+0.024*[#  19]+0.016*[#  20]
          +0.009*[#  10]+0.002*[#  21]+0.002*[#  25]+0.002*[#   6]+0.002*[#   7]
          +0.001*[#  15]
    |psi|^2 = 0.963
==== e(  14) =     9.24485 eV ==== 
     psi = 0.304*[#   8]+0.163*[#  22]+0.163*[#  26]+0.161*[#  23]+0.161*[#  24]
          +0.161*[#  27]+0.161*[#  28]+0.016*[#  18]+0.006*[#  16]+0.006*[#  17]
          +0.002*[#   6]+0.002*[#   7]
    |psi|^2 = 1.310
==== e(  15) =     9.42993 eV ==== 
     psi = 0.155*[#   5]+0.108*[#  15]+0.068*[#  23]+0.068*[#  24]+0.068*[#  27]
          +0.068*[#  28]+0.018*[#  19]+0.003*[#   6]+0.003*[#   7]+0.003*[#   9]
          +0.002*[#  16]+0.002*[#  17]
    |psi|^2 = 0.569
==== e(  16) =     9.70816 eV ==== 
     psi = 0.205*[#  23]+0.205*[#  24]+0.205*[#  27]+0.205*[#  28]+0.161*[#  22]
          +0.161*[#  26]+0.112*[#  18]+0.023*[#   6]+0.023*[#   7]
    |psi|^2 = 1.299
==== e(  17) =    12.09149 eV ==== 
     psi = 0.724*[#   9]+0.059*[#  19]+0.031*[#   5]+0.023*[#   6]+0.023*[#   7]
          +0.018*[#  23]+0.018*[#  24]+0.018*[#  27]+0.018*[#  28]+0.013*[#  10]
          +0.004*[#  22]+0.004*[#  26]+0.003*[#  21]+0.003*[#  25]+0.003*[#  15]
          
    |psi|^2 = 0.962
==== e(  18) =    12.98990 eV ==== 
     psi = 0.402*[#   6]+0.402*[#   7]+0.038*[#   5]+0.027*[#   9]+0.018*[#  22]
          +0.018*[#  26]+0.017*[#  20]+0.010*[#  19]+0.008*[#  23]+0.008*[#  24]
          +0.008*[#  27]+0.008*[#  28]+0.003*[#  21]+0.003*[#  25]+0.002*[#  10]
          
    |psi|^2 = 0.973
==== e(  19) =    13.05742 eV ==== 
     psi = 0.458*[#   6]+0.458*[#   7]+0.020*[#  18]+0.019*[#  22]+0.019*[#  26]
          +0.009*[#   8]+0.008*[#  23]+0.008*[#  24]+0.008*[#  27]+0.008*[#  28]
          +0.002*[#  16]+0.002*[#  17]
    |psi|^2 = 1.017
==== e(  20) =    14.37146 eV ==== 
     psi = 0.597*[#   8]+0.082*[#  18]+0.049*[#  23]+0.049*[#  24]+0.049*[#  27]
          +0.049*[#  28]+0.047*[#  16]+0.047*[#  17]+0.008*[#  22]+0.008*[#  26]
          
    |psi|^2 = 0.988
==== e(  21) =    14.79512 eV ==== 
     psi = 0.529*[#   5]+0.179*[#  19]+0.052*[#  22]+0.052*[#  26]+0.033*[#  15]
          +0.019*[#  23]+0.019*[#  24]+0.019*[#  27]+0.019*[#  28]+0.016*[#  21]
          +0.016*[#  25]+0.004*[#   6]+0.004*[#   7]+0.003*[#  10]
    |psi|^2 = 0.965
==== e(  22) =    15.00611 eV ==== 
     psi = 0.493*[#  19]+0.082*[#   9]+0.075*[#   5]+0.069*[#  16]+0.069*[#  17]
          +0.050*[#  15]+0.019*[#  22]+0.019*[#  26]+0.013*[#   6]+0.013*[#   7]
          +0.012*[#  23]+0.012*[#  24]+0.012*[#  27]+0.012*[#  28]+0.011*[#  20]
          +0.007*[#  21]+0.007*[#  25]+0.006*[#  10]
    |psi|^2 = 0.979
==== e(  23) =    15.84240 eV ==== 
     psi = 0.367*[#  16]+0.367*[#  17]+0.106*[#  19]+0.051*[#  15]+0.018*[#   9]
          +0.017*[#  10]+0.004*[#  22]+0.004*[#  26]+0.003*[#  21]+0.003*[#  25]
          +0.001*[#   5]
    |psi|^2 = 0.944
==== e(  24) =    16.14651 eV ==== 
     psi = 0.418*[#  16]+0.418*[#  17]+0.062*[#  18]+0.024*[#   8]+0.012*[#  22]
          +0.012*[#  26]+0.011*[#  23]+0.011*[#  24]+0.011*[#  27]+0.011*[#  28]
          
    |psi|^2 = 0.991
==== e(  25) =    17.58208 eV ==== 
     psi = 0.675*[#  18]+0.055*[#  24]+0.055*[#  28]+0.055*[#  23]+0.055*[#  27]
          +0.043*[#   8]+0.011*[#  16]+0.011*[#  17]+0.004*[#   6]+0.004*[#   7]
          
    |psi|^2 = 0.968
==== e(  26) =    17.63813 eV ==== 
     psi = 0.567*[#  15]+0.093*[#  22]+0.092*[#  26]+0.076*[#  10]+0.026*[#   5]
          +0.016*[#  19]+0.014*[#  16]+0.014*[#  17]+0.014*[#  25]+0.013*[#  21]
          +0.007*[#  23]+0.007*[#  24]+0.006*[#  27]+0.006*[#  28]+0.001*[#   9]
          +0.001*[#  20]
    |psi|^2 = 0.956

 k =  -0.6666666667  0.6666666667  0.0000000000
==== e(   1) =   -90.87284 eV ==== 
     psi = 0.982*[#   1]+0.012*[#  10]
    |psi|^2 = 0.999
==== e(   2) =   -88.47966 eV ==== 
     psi = 0.981*[#  11]+0.013*[#  20]
    |psi|^2 = 0.999
==== e(   3) =   -50.94810 eV ==== 
     psi = 0.499*[#   3]+0.499*[#   4]
    |psi|^2 = 1.001
==== e(   4) =   -50.88234 eV ==== 
     psi = 0.088*[#   3]+0.088*[#   4]
    |psi|^2 = 0.180
==== e(   5) =   -50.45385 eV ==== 
     psi = 0.409*[#   3]+0.409*[#   4]+0.177*[#   2]+0.001*[#  12]
    |psi|^2 = 0.999
==== e(   6) =   -48.04102 eV ==== 
     psi = 0.499*[#  13]+0.499*[#  14]+0.409*[#   2]
    |psi|^2 = 1.410
==== e(   7) =   -47.96901 eV ==== 
     psi = 0.063*[#  13]+0.063*[#  14]+0.001*[#   3]+0.001*[#   4]
    |psi|^2 = 0.129
==== e(   8) =   -47.60971 eV ==== 
     psi = 0.499*[#  12]+0.435*[#  13]+0.435*[#  14]
    |psi|^2 = 1.371
==== e(   9) =    -5.87499 eV ==== 
     psi = 0.483*[#  21]+0.466*[#  25]+0.025*[#   5]+0.021*[#  15]
    |psi|^2 = 0.998
==== e(  10) =    -5.87289 eV ==== 
     psi = 0.484*[#  25]+0.466*[#  21]+0.025*[#   8]+0.021*[#  18]
    |psi|^2 = 0.998
==== e(  11) =     7.04711 eV ==== 
     psi = 0.123*[#  23]+0.123*[#  24]+0.123*[#  27]+0.123*[#  28]+0.091*[#  10]
          +0.068*[#  20]+0.035*[#   6]+0.035*[#   7]+0.019*[#  16]+0.019*[#  17]
          +0.009*[#   9]+0.006*[#  19]+0.003*[#   5]+0.002*[#  15]
    |psi|^2 = 0.783
==== e(  12) =     7.20102 eV ==== 
     psi = 0.167*[#  23]+0.167*[#  24]+0.167*[#  27]+0.167*[#  28]+0.089*[#  10]
          +0.084*[#  20]+0.066*[#   9]+0.034*[#  19]+0.032*[#   5]+0.012*[#  15]
          
    |psi|^2 = 0.989
==== e(  13) =     7.73167 eV ==== 
     psi = 0.376*[#  22]+0.376*[#  26]+0.065*[#   6]+0.065*[#   7]+0.014*[#  16]
          +0.014*[#  17]+0.009*[#  23]+0.009*[#  24]+0.009*[#  27]+0.009*[#  28]
          +0.001*[#   8]
    |psi|^2 = 0.951
==== e(  14) =     8.21028 eV ==== 
     psi = 0.185*[#  23]+0.185*[#  24]+0.185*[#  27]+0.185*[#  28]+0.066*[#   8]
          +0.027*[#  16]+0.027*[#  17]+0.016*[#   6]+0.016*[#   7]+0.009*[#  22]
          +0.009*[#  26]+0.008*[#  18]
    |psi|^2 = 0.920
==== e(  15) =     8.68765 eV ==== 
     psi = 0.183*[#   5]+0.081*[#  15]+0.058*[#  23]+0.058*[#  24]+0.058*[#  27]
          +0.058*[#  28]+0.025*[#  22]+0.025*[#  26]+0.011*[#   9]+0.011*[#  10]
          +0.004*[#  20]+0.002*[#   6]+0.002*[#   7]+0.001*[#  19]
    |psi|^2 = 0.580
==== e(  16) =     9.04889 eV ==== 
     psi = 0.185*[#  22]+0.185*[#  26]+0.180*[#   8]+0.172*[#  23]+0.172*[#  24]
          +0.172*[#  27]+0.172*[#  28]+0.102*[#  18]+0.002*[#   6]+0.002*[#   7]
          +0.001*[#  16]+0.001*[#  17]
    |psi|^2 = 1.349
==== e(  17) =    12.61442 eV ==== 
     psi = 0.752*[#   9]+0.060*[#   6]+0.060*[#   7]+0.031*[#   5]+0.011*[#  15]
          +0.010*[#  23]+0.010*[#  24]+0.010*[#  27]+0.010*[#  28]+0.006*[#  10]
          +0.005*[#  22]+0.005*[#  26]+0.001*[#  21]+0.001*[#  25]
    |psi|^2 = 0.976
==== e(  18) =    12.78562 eV ==== 
     psi = 0.377*[#   6]+0.377*[#   7]+0.059*[#   8]+0.018*[#  18]+0.015*[#  23]
          +0.015*[#  24]+0.015*[#  27]+0.015*[#  28]+0.010*[#  22]+0.010*[#  26]
          +0.004*[#  16]+0.004*[#  17]+0.002*[#  21]+0.002*[#  25]
    |psi|^2 = 0.923
==== e(  19) =    12.91976 eV ==== 
     psi = 0.386*[#   6]+0.386*[#   7]+0.078*[#   9]+0.037*[#  22]+0.037*[#  26]
          +0.024*[#  23]+0.024*[#  24]+0.024*[#  27]+0.024*[#  28]+0.017*[#   5]
          +0.004*[#  19]+0.004*[#  20]+0.003*[#  15]+0.003*[#  10]
    |psi|^2 = 1.053
==== e(  20) =    14.21286 eV ==== 
     psi = 0.646*[#   5]+0.055*[#   9]+0.052*[#  19]+0.045*[#  20]+0.026*[#  15]
          +0.015*[#  22]+0.015*[#  26]+0.013*[#  21]+0.013*[#  25]+0.008*[#  23]
          +0.008*[#  24]+0.008*[#  27]+0.008*[#  28]+0.004*[#   6]+0.004*[#   7]
          
    |psi|^2 = 0.921
==== e(  21) =    14.50601 eV ==== 
     psi = 0.592*[#   8]+0.045*[#  23]+0.045*[#  24]+0.045*[#  27]+0.045*[#  28]
          +0.037*[#  16]+0.037*[#  17]+0.029*[#   6]+0.029*[#   7]+0.024*[#  18]
          +0.012*[#  21]+0.012*[#  25]+0.010*[#  22]+0.010*[#  26]
    |psi|^2 = 0.972
==== e(  22) =    15.46947 eV ==== 
     psi = 0.820*[#  19]+0.045*[#  22]+0.045*[#  26]+0.030*[#   5]+0.015*[#  23]
          +0.015*[#  24]+0.015*[#  27]+0.015*[#  28]+0.011*[#  15]+0.007*[#  20]
          +0.006*[#  16]+0.006*[#  17]
    |psi|^2 = 1.030
==== e(  23) =    15.62684 eV ==== 
     psi = 0.386*[#  16]+0.386*[#  17]+0.057*[#   8]+0.020*[#  23]+0.020*[#  24]
          +0.020*[#  27]+0.020*[#  28]+0.011*[#  18]+0.006*[#  22]+0.006*[#  26]
          
    |psi|^2 = 0.932
==== e(  24) =    15.69267 eV ==== 
     psi = 0.453*[#  16]+0.453*[#  17]+0.015*[#  22]+0.015*[#  26]+0.010*[#  23]
          +0.010*[#  24]+0.010*[#  27]+0.010*[#  28]+0.008*[#  19]+0.002*[#  10]
          +0.001*[#   6]+0.001*[#   7]+0.001*[#  20]
    |psi|^2 = 0.990
==== e(  25) =    16.88590 eV ==== 
     psi = 0.760*[#  15]+0.083*[#  10]+0.022*[#  22]+0.022*[#  26]+0.020*[#  19]
          +0.008*[#  21]+0.008*[#  25]+0.008*[#  23]+0.008*[#  24]+0.008*[#  27]
          +0.008*[#  28]+0.004*[#   5]+0.001*[#   1]
    |psi|^2 = 0.962
==== e(  26) =    17.25225 eV ==== 
     psi = 0.786*[#  18]+0.035*[#  23]+0.035*[#  24]+0.035*[#  27]+0.035*[#  28]
          +0.010*[#  16]+0.010*[#  17]+0.009*[#  21]+0.009*[#  25]+0.002*[#   8]
          
    |psi|^2 = 0.966

 k =   0.1666666667 -0.5000000000  0.1666666667
==== e(   1) =   -90.86585 eV ==== 
     psi = 0.988*[#   1]+0.004*[#  20]+0.003*[#  10]
    |psi|^2 = 0.999
==== e(   2) =   -88.47349 eV ==== 
     psi = 0.988*[#  11]+0.004*[#  10]+0.003*[#  20]
    |psi|^2 = 0.998
==== e(   3) =   -50.79788 eV ==== 
     psi = 0.438*[#   4]+0.278*[#   3]+0.001*[#  13]
    |psi|^2 = 0.721
==== e(   4) =   -50.58392 eV ==== 
     psi = 0.556*[#   4]+0.218*[#   3]+0.002*[#  14]+0.002*[#  13]
    |psi|^2 = 0.781
==== e(   5) =   -50.39533 eV ==== 
     psi = 0.498*[#   2]+0.498*[#   3]
    |psi|^2 = 0.999
==== e(   6) =   -47.87562 eV ==== 
     psi = 0.498*[#   2]+0.364*[#  14]+0.315*[#  13]+0.001*[#   3]
    |psi|^2 = 1.183
==== e(   7) =   -47.71976 eV ==== 
     psi = 0.630*[#  14]+0.315*[#  12]+0.181*[#  13]+0.003*[#   4]+0.001*[#   2]
          +0.001*[#   3]
    |psi|^2 = 1.133
==== e(   8) =   -47.45611 eV ==== 
     psi = 0.498*[#  13]+0.315*[#  12]+0.001*[#   2]
    |psi|^2 = 0.816
==== e(   9) =    -6.27454 eV ==== 
     psi = 0.410*[#  21]+0.410*[#  25]+0.084*[#  10]+0.080*[#  20]+0.005*[#   8]
          +0.004*[#  18]+0.002*[#   5]+0.001*[#  15]
    |psi|^2 = 0.999
==== e(  10) =    -5.87322 eV ==== 
     psi = 0.475*[#  21]+0.475*[#  25]+0.019*[#   8]+0.016*[#  18]+0.006*[#   5]
          +0.005*[#  15]
    |psi|^2 = 0.998
==== e(  11) =     7.14489 eV ==== 
     psi = 0.161*[#  23]+0.161*[#  27]+0.135*[#  10]+0.078*[#   6]+0.045*[#  20]
          +0.027*[#  16]+0.015*[#  18]+0.013*[#   8]+0.008*[#  24]+0.008*[#  28]
          +0.005*[#  15]+0.004*[#   5]+0.002*[#  21]+0.002*[#  25]
    |psi|^2 = 0.668
==== e(  12) =     7.32433 eV ==== 
     psi = 0.241*[#  24]+0.241*[#  28]+0.123*[#  20]+0.063*[#  10]+0.056*[#   8]
          +0.036*[#  23]+0.036*[#  27]+0.019*[#   5]+0.018*[#  21]+0.018*[#  25]
          +0.015*[#  18]+0.014*[#   7]+0.014*[#   9]+0.008*[#  16]+0.005*[#  15]
          +0.004*[#  17]+0.004*[#  19]+0.001*[#  11]
    |psi|^2 = 0.919
==== e(  13) =     7.76202 eV ==== 
     psi = 0.402*[#  24]+0.402*[#  28]+0.046*[#   7]+0.046*[#   9]+0.024*[#  17]
          +0.024*[#  19]+0.001*[#   8]
    |psi|^2 = 0.951
==== e(  14) =     8.97750 eV ==== 
     psi = 0.207*[#   5]+0.162*[#  23]+0.162*[#  27]+0.069*[#   8]+0.041*[#  15]
          +0.014*[#  18]
    |psi|^2 = 0.658
==== e(  15) =     9.43404 eV ==== 
     psi = 0.162*[#  22]+0.162*[#  26]+0.148*[#  23]+0.148*[#  27]+0.070*[#   8]
          +0.066*[#  24]+0.066*[#  28]+0.035*[#  18]+0.033*[#   6]+0.025*[#  16]
          +0.023*[#   5]+0.012*[#   7]+0.012*[#   9]+0.012*[#  15]+0.008*[#  17]
          +0.008*[#  19]+0.004*[#  20]+0.002*[#  21]+0.002*[#  25]
    |psi|^2 = 0.999
==== e(  16) =     9.95834 eV ==== 
     psi = 0.195*[#  23]+0.195*[#  27]+0.162*[#  22]+0.162*[#  26]+0.058*[#  15]
          +0.034*[#   7]+0.034*[#   9]+0.024*[#   5]+0.019*[#  18]+0.010*[#  17]
          +0.010*[#  19]+0.008*[#   8]
    |psi|^2 = 0.912
==== e(  17) =    12.39664 eV ==== 
     psi = 0.785*[#   6]+0.061*[#   8]+0.020*[#   5]+0.013*[#  10]+0.011*[#  16]
          +0.011*[#  22]+0.011*[#  23]+0.011*[#  26]+0.011*[#  27]+0.008*[#   7]
          +0.008*[#   9]+0.004*[#  21]+0.004*[#  25]+0.001*[#  20]
    |psi|^2 = 0.964
==== e(  18) =    12.95855 eV ==== 
     psi = 0.423*[#   7]+0.423*[#   9]+0.055*[#   5]+0.018*[#   8]+0.016*[#  15]
          +0.011*[#  22]+0.011*[#  26]+0.009*[#  23]+0.009*[#  27]+0.005*[#  18]
          +0.001*[#  17]+0.001*[#  19]
    |psi|^2 = 0.983
==== e(  19) =    13.08533 eV ==== 
     psi = 0.408*[#   7]+0.408*[#   9]+0.046*[#  24]+0.046*[#  28]+0.012*[#  23]
          +0.012*[#  27]+0.009*[#  22]+0.009*[#  26]+0.006*[#   6]+0.006*[#  10]
          +0.003*[#  20]+0.002*[#   8]+0.001*[#  16]+0.001*[#  21]+0.001*[#  25]
          
    |psi|^2 = 0.973
==== e(  20) =    14.19191 eV ==== 
     psi = 0.424*[#   5]+0.141*[#   8]+0.066*[#  23]+0.066*[#  27]+0.039*[#  15]
          +0.030*[#   7]+0.030*[#   9]+0.016*[#  17]+0.016*[#  19]+0.013*[#  18]
          +0.009*[#  22]+0.009*[#  26]
    |psi|^2 = 0.860
==== e(  21) =    14.23036 eV ==== 
     psi = 0.458*[#   8]+0.153*[#   5]+0.062*[#  20]+0.039*[#   6]+0.038*[#  16]
          +0.029*[#  22]+0.029*[#  23]+0.029*[#  26]+0.029*[#  27]+0.024*[#  21]
          +0.024*[#  25]+0.021*[#  18]+0.018*[#  24]+0.018*[#  28]+0.007*[#  15]
          +0.001*[#  10]
    |psi|^2 = 0.981
==== e(  22) =    14.88936 eV ==== 
     psi = 0.747*[#  16]+0.037*[#  18]+0.029*[#  22]+0.029*[#  26]+0.028*[#  20]
          +0.017*[#   6]+0.013*[#   8]+0.012*[#  15]+0.013*[#  23]+0.013*[#  27]
          +0.006*[#  10]+0.006*[#  21]+0.006*[#  25]+0.004*[#   5]
    |psi|^2 = 0.961
==== e(  23) =    15.79650 eV ==== 
     psi = 0.444*[#  17]+0.444*[#  19]+0.027*[#  24]+0.027*[#  28]+0.013*[#  22]
          +0.013*[#  26]+0.005*[#  23]+0.005*[#  27]+0.004*[#  10]+0.004*[#  16]
          +0.001*[#  20]
    |psi|^2 = 0.986
==== e(  24) =    16.01090 eV ==== 
     psi = 0.452*[#  17]+0.452*[#  19]+0.013*[#  22]+0.013*[#  26]+0.012*[#  23]
          +0.012*[#  27]+0.008*[#   5]+0.005*[#  15]+0.003*[#   8]+0.002*[#  18]
          +0.001*[#   7]+0.001*[#   9]
    |psi|^2 = 0.973
==== e(  25) =    16.36628 eV ==== 
     psi = 0.396*[#  18]+0.187*[#  10]+0.132*[#  15]+0.058*[#  16]+0.037*[#  21]
          +0.037*[#  25]+0.028*[#  20]+0.021*[#  22]+0.021*[#  23]+0.021*[#  26]
          +0.021*[#  27]+0.004*[#   8]+0.003*[#  24]+0.003*[#  28]+0.001*[#   5]
          
    |psi|^2 = 0.972
==== e(  26) =    16.98908 eV ==== 
     psi = 0.570*[#  15]+0.190*[#  18]+0.045*[#  22]+0.045*[#  23]+0.045*[#  26]
          +0.045*[#  27]+0.018*[#   5]+0.006*[#   8]+0.004*[#  17]+0.004*[#  19]
          
    |psi|^2 = 0.970

 k =   0.6666666667 -0.6666666667  0.0000000000
==== e(   1) =   -90.87284 eV ==== 
     psi = 0.982*[#   1]+0.012*[#  10]
    |psi|^2 = 0.999
==== e(   2) =   -88.47966 eV ==== 
     psi = 0.981*[#  11]+0.013*[#  20]
    |psi|^2 = 0.999
==== e(   3) =   -50.94810 eV ==== 
     psi = 0.499*[#   3]+0.499*[#   4]
    |psi|^2 = 1.001
==== e(   4) =   -50.88234 eV ==== 
     psi = 0.088*[#   3]+0.088*[#   4]
    |psi|^2 = 0.180
==== e(   5) =   -50.45385 eV ==== 
     psi = 0.409*[#   3]+0.409*[#   4]+0.177*[#   2]+0.001*[#  12]
    |psi|^2 = 0.999
==== e(   6) =   -48.04102 eV ==== 
     psi = 0.499*[#  13]+0.499*[#  14]+0.409*[#   2]
    |psi|^2 = 1.410
==== e(   7) =   -47.96901 eV ==== 
     psi = 0.063*[#  13]+0.063*[#  14]+0.001*[#   3]+0.001*[#   4]
    |psi|^2 = 0.129
==== e(   8) =   -47.60971 eV ==== 
     psi = 0.499*[#  12]+0.435*[#  13]+0.435*[#  14]
    |psi|^2 = 1.371
==== e(   9) =    -5.87499 eV ==== 
     psi = 0.483*[#  21]+0.466*[#  25]+0.025*[#   5]+0.021*[#  15]
    |psi|^2 = 0.998
==== e(  10) =    -5.87289 eV ==== 
     psi = 0.484*[#  25]+0.466*[#  21]+0.025*[#   8]+0.021*[#  18]
    |psi|^2 = 0.998
==== e(  11) =     7.04711 eV ==== 
     psi = 0.123*[#  23]+0.123*[#  24]+0.123*[#  27]+0.123*[#  28]+0.091*[#  10]
          +0.068*[#  20]+0.035*[#   6]+0.035*[#   7]+0.019*[#  16]+0.019*[#  17]
          +0.009*[#   9]+0.006*[#  19]+0.003*[#   5]+0.002*[#  15]
    |psi|^2 = 0.783
==== e(  12) =     7.20102 eV ==== 
     psi = 0.167*[#  23]+0.167*[#  24]+0.167*[#  27]+0.167*[#  28]+0.089*[#  10]
          +0.084*[#  20]+0.066*[#   9]+0.034*[#  19]+0.032*[#   5]+0.012*[#  15]
          
    |psi|^2 = 0.989
==== e(  13) =     7.73167 eV ==== 
     psi = 0.376*[#  22]+0.376*[#  26]+0.065*[#   6]+0.065*[#   7]+0.014*[#  16]
          +0.014*[#  17]+0.009*[#  23]+0.009*[#  24]+0.009*[#  27]+0.009*[#  28]
          +0.001*[#   8]
    |psi|^2 = 0.951
==== e(  14) =     8.21028 eV ==== 
     psi = 0.185*[#  23]+0.185*[#  24]+0.185*[#  27]+0.185*[#  28]+0.066*[#   8]
          +0.027*[#  16]+0.027*[#  17]+0.016*[#   6]+0.016*[#   7]+0.009*[#  22]
          +0.009*[#  26]+0.008*[#  18]
    |psi|^2 = 0.920
==== e(  15) =     8.68765 eV ==== 
     psi = 0.183*[#   5]+0.081*[#  15]+0.058*[#  23]+0.058*[#  24]+0.058*[#  27]
          +0.058*[#  28]+0.025*[#  22]+0.025*[#  26]+0.011*[#   9]+0.011*[#  10]
          +0.004*[#  20]+0.002*[#   6]+0.002*[#   7]+0.001*[#  19]
    |psi|^2 = 0.580
==== e(  16) =     9.04889 eV ==== 
     psi = 0.185*[#  22]+0.185*[#  26]+0.180*[#   8]+0.172*[#  23]+0.172*[#  24]
          +0.172*[#  27]+0.172*[#  28]+0.102*[#  18]+0.002*[#   6]+0.002*[#   7]
          +0.001*[#  16]+0.001*[#  17]
    |psi|^2 = 1.349
==== e(  17) =    12.61442 eV ==== 
     psi = 0.752*[#   9]+0.060*[#   6]+0.060*[#   7]+0.031*[#   5]+0.011*[#  15]
          +0.010*[#  23]+0.010*[#  24]+0.010*[#  27]+0.010*[#  28]+0.006*[#  10]
          +0.005*[#  22]+0.005*[#  26]+0.001*[#  21]+0.001*[#  25]
    |psi|^2 = 0.976
==== e(  18) =    12.78562 eV ==== 
     psi = 0.377*[#   6]+0.377*[#   7]+0.059*[#   8]+0.018*[#  18]+0.015*[#  23]
          +0.015*[#  24]+0.015*[#  27]+0.015*[#  28]+0.010*[#  22]+0.010*[#  26]
          +0.004*[#  16]+0.004*[#  17]+0.002*[#  21]+0.002*[#  25]
    |psi|^2 = 0.923
==== e(  19) =    12.91976 eV ==== 
     psi = 0.386*[#   6]+0.386*[#   7]+0.078*[#   9]+0.037*[#  22]+0.037*[#  26]
          +0.024*[#  23]+0.024*[#  24]+0.024*[#  27]+0.024*[#  28]+0.017*[#   5]
          +0.004*[#  19]+0.004*[#  20]+0.003*[#  15]+0.003*[#  10]
    |psi|^2 = 1.053
==== e(  20) =    14.21286 eV ==== 
     psi = 0.646*[#   5]+0.055*[#   9]+0.052*[#  19]+0.045*[#  20]+0.026*[#  15]
          +0.015*[#  22]+0.015*[#  26]+0.013*[#  21]+0.013*[#  25]+0.008*[#  23]
          +0.008*[#  24]+0.008*[#  27]+0.008*[#  28]+0.004*[#   6]+0.004*[#   7]
          
    |psi|^2 = 0.921
==== e(  21) =    14.50601 eV ==== 
     psi = 0.592*[#   8]+0.045*[#  23]+0.045*[#  24]+0.045*[#  27]+0.045*[#  28]
          +0.037*[#  16]+0.037*[#  17]+0.029*[#   6]+0.029*[#   7]+0.024*[#  18]
          +0.012*[#  21]+0.012*[#  25]+0.010*[#  22]+0.010*[#  26]
    |psi|^2 = 0.972
==== e(  22) =    15.46947 eV ==== 
     psi = 0.820*[#  19]+0.045*[#  22]+0.045*[#  26]+0.030*[#   5]+0.015*[#  23]
          +0.015*[#  24]+0.015*[#  27]+0.015*[#  28]+0.011*[#  15]+0.007*[#  20]
          +0.006*[#  16]+0.006*[#  17]
    |psi|^2 = 1.030
==== e(  23) =    15.62684 eV ==== 
     psi = 0.386*[#  16]+0.386*[#  17]+0.057*[#   8]+0.020*[#  23]+0.020*[#  24]
          +0.020*[#  27]+0.020*[#  28]+0.011*[#  18]+0.006*[#  22]+0.006*[#  26]
          
    |psi|^2 = 0.932
==== e(  24) =    15.69267 eV ==== 
     psi = 0.453*[#  16]+0.453*[#  17]+0.015*[#  22]+0.015*[#  26]+0.010*[#  23]
          +0.010*[#  24]+0.010*[#  27]+0.010*[#  28]+0.008*[#  19]+0.002*[#  10]
          +0.001*[#   6]+0.001*[#   7]+0.001*[#  20]
    |psi|^2 = 0.990
==== e(  25) =    16.88590 eV ==== 
     psi = 0.760*[#  15]+0.083*[#  10]+0.022*[#  22]+0.022*[#  26]+0.020*[#  19]
          +0.008*[#  21]+0.008*[#  25]+0.008*[#  23]+0.008*[#  24]+0.008*[#  27]
          +0.008*[#  28]+0.004*[#   5]+0.001*[#   1]
    |psi|^2 = 0.962
==== e(  26) =    17.25225 eV ==== 
     psi = 0.786*[#  18]+0.035*[#  23]+0.035*[#  24]+0.035*[#  27]+0.035*[#  28]
          +0.010*[#  16]+0.010*[#  17]+0.009*[#  21]+0.009*[#  25]+0.002*[#   8]
          
    |psi|^2 = 0.966

 k =  -0.3333333333 -0.3333333333  0.3333333333
==== e(   1) =   -90.86291 eV ==== 
     psi = 0.989*[#   1]+0.003*[#  10]+0.002*[#  20]
    |psi|^2 = 0.999
==== e(   2) =   -88.47071 eV ==== 
     psi = 0.989*[#  11]+0.003*[#  20]+0.002*[#  10]
    |psi|^2 = 0.998
==== e(   3) =   -50.84908 eV ==== 
     psi = 0.225*[#   3]+0.225*[#   4]
    |psi|^2 = 0.454
==== e(   4) =   -50.37532 eV ==== 
     psi = 0.271*[#   3]+0.271*[#   4]+0.002*[#  13]+0.002*[#  14]
    |psi|^2 = 0.547
==== e(   5) =   -50.27154 eV ==== 
     psi = 0.497*[#   3]+0.497*[#   4]+0.002*[#  13]+0.002*[#  14]
    |psi|^2 = 0.999
==== e(   6) =   -47.93508 eV ==== 
     psi = 0.497*[#   2]+0.274*[#  13]+0.274*[#  14]+0.002*[#  12]
    |psi|^2 = 1.049
==== e(   7) =   -47.41853 eV ==== 
     psi = 0.448*[#  12]+0.223*[#  13]+0.223*[#  14]+0.003*[#   3]+0.003*[#   4]
          +0.001*[#   2]
    |psi|^2 = 0.902
==== e(   8) =   -47.31288 eV ==== 
     psi = 0.497*[#  13]+0.497*[#  14]+0.274*[#  12]+0.002*[#   3]+0.002*[#   4]
          
    |psi|^2 = 1.274
==== e(   9) =    -6.20516 eV ==== 
     psi = 0.428*[#  21]+0.427*[#  25]+0.074*[#  10]+0.067*[#  20]
    |psi|^2 = 0.999
==== e(  10) =    -5.95151 eV ==== 
     psi = 0.453*[#  25]+0.453*[#  21]+0.032*[#   5]+0.027*[#  15]+0.017*[#  20]
          +0.014*[#  10]
    |psi|^2 = 0.999
==== e(  11) =     6.76736 eV ==== 
     psi = 0.122*[#  10]+0.102*[#  23]+0.102*[#  24]+0.102*[#  27]+0.102*[#  28]
          +0.089*[#  20]+0.033*[#   9]+0.025*[#   6]+0.025*[#   7]+0.023*[#  21]
          +0.023*[#  25]+0.015*[#  16]+0.015*[#  17]+0.012*[#  19]+0.002*[#  11]
          +0.001*[#   1]
    |psi|^2 = 0.792
==== e(  12) =     7.16542 eV ==== 
     psi = 0.045*[#  20]+0.044*[#  10]+0.017*[#   6]+0.017*[#   7]+0.014*[#   5]
          +0.014*[#  23]+0.014*[#  24]+0.014*[#  27]+0.014*[#  28]+0.007*[#  16]
          +0.007*[#  17]+0.005*[#  15]+0.002*[#   9]+0.002*[#  19]+0.001*[#  21]
          +0.001*[#  25]
    |psi|^2 = 0.219
==== e(  13) =     8.71672 eV ==== 
     psi = 0.163*[#  23]+0.163*[#  24]+0.163*[#  27]+0.163*[#  28]+0.074*[#   5]
          +0.072*[#   9]+0.052*[#  22]+0.052*[#  26]+0.024*[#  19]+0.016*[#  20]
          +0.009*[#  10]+0.002*[#  21]+0.002*[#  25]+0.002*[#   6]+0.002*[#   7]
          +0.001*[#  15]
    |psi|^2 = 0.963
==== e(  14) =     9.24485 eV ==== 
     psi = 0.304*[#   8]+0.163*[#  22]+0.163*[#  26]+0.161*[#  23]+0.161*[#  24]
          +0.161*[#  27]+0.161*[#  28]+0.016*[#  18]+0.006*[#  16]+0.006*[#  17]
          +0.002*[#   6]+0.002*[#   7]
    |psi|^2 = 1.310
==== e(  15) =     9.42993 eV ==== 
     psi = 0.155*[#   5]+0.108*[#  15]+0.068*[#  23]+0.068*[#  24]+0.068*[#  27]
          +0.068*[#  28]+0.018*[#  19]+0.003*[#   6]+0.003*[#   7]+0.003*[#   9]
          +0.002*[#  16]+0.002*[#  17]
    |psi|^2 = 0.569
==== e(  16) =     9.70816 eV ==== 
     psi = 0.205*[#  23]+0.205*[#  24]+0.205*[#  27]+0.205*[#  28]+0.161*[#  22]
          +0.161*[#  26]+0.112*[#  18]+0.023*[#   6]+0.023*[#   7]
    |psi|^2 = 1.299
==== e(  17) =    12.09149 eV ==== 
     psi = 0.724*[#   9]+0.059*[#  19]+0.031*[#   5]+0.023*[#   6]+0.023*[#   7]
          +0.018*[#  23]+0.018*[#  24]+0.018*[#  27]+0.018*[#  28]+0.013*[#  10]
          +0.004*[#  22]+0.004*[#  26]+0.003*[#  21]+0.003*[#  25]+0.003*[#  15]
          
    |psi|^2 = 0.962
==== e(  18) =    12.98990 eV ==== 
     psi = 0.402*[#   6]+0.402*[#   7]+0.038*[#   5]+0.027*[#   9]+0.018*[#  22]
          +0.018*[#  26]+0.017*[#  20]+0.010*[#  19]+0.008*[#  23]+0.008*[#  24]
          +0.008*[#  27]+0.008*[#  28]+0.003*[#  21]+0.003*[#  25]+0.002*[#  10]
          
    |psi|^2 = 0.973
==== e(  19) =    13.05742 eV ==== 
     psi = 0.458*[#   6]+0.458*[#   7]+0.020*[#  18]+0.019*[#  22]+0.019*[#  26]
          +0.009*[#   8]+0.008*[#  23]+0.008*[#  24]+0.008*[#  27]+0.008*[#  28]
          +0.002*[#  16]+0.002*[#  17]
    |psi|^2 = 1.017
==== e(  20) =    14.37146 eV ==== 
     psi = 0.597*[#   8]+0.082*[#  18]+0.049*[#  23]+0.049*[#  24]+0.049*[#  27]
          +0.049*[#  28]+0.047*[#  16]+0.047*[#  17]+0.008*[#  22]+0.008*[#  26]
          
    |psi|^2 = 0.988
==== e(  21) =    14.79512 eV ==== 
     psi = 0.529*[#   5]+0.179*[#  19]+0.052*[#  22]+0.052*[#  26]+0.033*[#  15]
          +0.019*[#  23]+0.019*[#  24]+0.019*[#  27]+0.019*[#  28]+0.016*[#  21]
          +0.016*[#  25]+0.004*[#   6]+0.004*[#   7]+0.003*[#  10]
    |psi|^2 = 0.965
==== e(  22) =    15.00611 eV ==== 
     psi = 0.493*[#  19]+0.082*[#   9]+0.075*[#   5]+0.069*[#  16]+0.069*[#  17]
          +0.050*[#  15]+0.019*[#  22]+0.019*[#  26]+0.013*[#   6]+0.013*[#   7]
          +0.012*[#  23]+0.012*[#  24]+0.012*[#  27]+0.012*[#  28]+0.011*[#  20]
          +0.007*[#  21]+0.007*[#  25]+0.006*[#  10]
    |psi|^2 = 0.979
==== e(  23) =    15.84240 eV ==== 
     psi = 0.367*[#  16]+0.367*[#  17]+0.106*[#  19]+0.051*[#  15]+0.018*[#   9]
          +0.017*[#  10]+0.004*[#  22]+0.004*[#  26]+0.003*[#  21]+0.003*[#  25]
          +0.001*[#   5]
    |psi|^2 = 0.944
==== e(  24) =    16.14651 eV ==== 
     psi = 0.418*[#  16]+0.418*[#  17]+0.062*[#  18]+0.024*[#   8]+0.012*[#  22]
          +0.012*[#  26]+0.011*[#  23]+0.011*[#  24]+0.011*[#  27]+0.011*[#  28]
          
    |psi|^2 = 0.991
==== e(  25) =    17.58208 eV ==== 
     psi = 0.675*[#  18]+0.055*[#  24]+0.055*[#  28]+0.055*[#  23]+0.055*[#  27]
          +0.043*[#   8]+0.011*[#  16]+0.011*[#  17]+0.004*[#   6]+0.004*[#   7]
          
    |psi|^2 = 0.968
==== e(  26) =    17.63812 eV ==== 
     psi = 0.567*[#  15]+0.093*[#  22]+0.092*[#  26]+0.076*[#  10]+0.026*[#   5]
          +0.016*[#  19]+0.014*[#  16]+0.014*[#  17]+0.013*[#  25]+0.013*[#  21]
          +0.007*[#  23]+0.007*[#  24]+0.006*[#  27]+0.006*[#  28]+0.001*[#   9]
          +0.001*[#  20]
    |psi|^2 = 0.956

 k =  -0.1666666667 -0.1666666667  0.5000000000
==== e(   1) =   -90.86585 eV ==== 
     psi = 0.988*[#   1]+0.004*[#  20]+0.003*[#  10]
    |psi|^2 = 0.999
==== e(   2) =   -88.47349 eV ==== 
     psi = 0.988*[#  11]+0.004*[#  10]+0.003*[#  20]
    |psi|^2 = 0.998
==== e(   3) =   -50.79788 eV ==== 
     psi = 0.278*[#   3]+0.278*[#   4]+0.001*[#  13]+0.001*[#  14]
    |psi|^2 = 0.562
==== e(   4) =   -50.58391 eV ==== 
     psi = 0.218*[#   3]+0.218*[#   4]+0.002*[#  13]+0.002*[#  14]
    |psi|^2 = 0.441
==== e(   5) =   -50.39532 eV ==== 
     psi = 0.498*[#   3]+0.498*[#   4]
    |psi|^2 = 0.999
==== e(   6) =   -47.87562 eV ==== 
     psi = 0.498*[#   2]+0.315*[#  13]+0.315*[#  14]+0.001*[#   3]+0.001*[#   4]
          
    |psi|^2 = 1.134
==== e(   7) =   -47.71976 eV ==== 
     psi = 0.364*[#  12]+0.181*[#  13]+0.181*[#  14]+0.001*[#   3]+0.001*[#   4]
          
    |psi|^2 = 0.732
==== e(   8) =   -47.45611 eV ==== 
     psi = 0.498*[#  13]+0.498*[#  14]+0.315*[#  12]+0.001*[#   2]
    |psi|^2 = 1.316
==== e(   9) =    -6.27454 eV ==== 
     psi = 0.410*[#  21]+0.410*[#  25]+0.084*[#  10]+0.080*[#  20]+0.007*[#   5]
          +0.005*[#  15]
    |psi|^2 = 0.999
==== e(  10) =    -5.87322 eV ==== 
     psi = 0.475*[#  21]+0.475*[#  25]+0.025*[#   5]+0.022*[#  15]
    |psi|^2 = 0.998
==== e(  11) =     7.14489 eV ==== 
     psi = 0.161*[#  23]+0.161*[#  24]+0.161*[#  27]+0.161*[#  28]+0.135*[#  10]
          +0.078*[#   9]+0.045*[#  20]+0.027*[#  19]+0.020*[#  15]+0.017*[#   5]
          +0.002*[#  21]+0.002*[#  25]
    |psi|^2 = 0.973
==== e(  12) =     7.32433 eV ==== 
     psi = 0.123*[#  20]+0.074*[#   5]+0.063*[#  10]+0.036*[#  23]+0.036*[#  24]
          +0.036*[#  27]+0.036*[#  28]+0.020*[#  15]+0.018*[#  21]+0.018*[#  25]
          +0.014*[#   6]+0.014*[#   7]+0.008*[#  19]+0.004*[#  16]+0.004*[#  17]
          +0.001*[#  11]
    |psi|^2 = 0.507
==== e(  13) =     7.76202 eV ==== 
     psi = 0.402*[#  22]+0.402*[#  26]+0.046*[#   6]+0.046*[#   7]+0.024*[#  16]
          +0.024*[#  17]+0.002*[#   5]
    |psi|^2 = 0.951
==== e(  14) =     8.97750 eV ==== 
     psi = 0.276*[#   8]+0.162*[#  23]+0.162*[#  24]+0.162*[#  27]+0.162*[#  28]
          +0.055*[#  18]
    |psi|^2 = 0.983
==== e(  15) =     9.43404 eV ==== 
     psi = 0.148*[#  23]+0.148*[#  24]+0.148*[#  27]+0.148*[#  28]+0.093*[#   5]
          +0.047*[#  15]+0.033*[#   9]+0.025*[#  19]+0.012*[#   6]+0.012*[#   7]
          +0.008*[#  16]+0.008*[#  17]+0.004*[#  20]+0.002*[#  21]+0.002*[#  25]
          
    |psi|^2 = 0.839
==== e(  16) =     9.95834 eV ==== 
     psi = 0.195*[#  23]+0.195*[#  24]+0.195*[#  27]+0.195*[#  28]+0.162*[#  22]
          +0.162*[#  26]+0.077*[#  18]+0.034*[#   6]+0.034*[#   7]+0.032*[#   8]
          +0.010*[#  16]+0.010*[#  17]
    |psi|^2 = 1.302
==== e(  17) =    12.39664 eV ==== 
     psi = 0.785*[#   9]+0.081*[#   5]+0.013*[#  10]+0.011*[#  19]+0.011*[#  23]
          +0.011*[#  24]+0.011*[#  27]+0.011*[#  28]+0.008*[#   6]+0.008*[#   7]
          +0.004*[#  21]+0.004*[#  25]+0.001*[#  20]
    |psi|^2 = 0.964
==== e(  18) =    12.95856 eV ==== 
     psi = 0.423*[#   6]+0.423*[#   7]+0.073*[#   8]+0.021*[#  18]+0.011*[#  22]
          +0.011*[#  26]+0.009*[#  23]+0.009*[#  24]+0.009*[#  27]+0.009*[#  28]
          +0.001*[#  16]+0.001*[#  17]
    |psi|^2 = 1.001
==== e(  19) =    13.08533 eV ==== 
     psi = 0.409*[#   6]+0.408*[#   7]+0.012*[#  23]+0.012*[#  24]+0.012*[#  27]
          +0.012*[#  28]+0.006*[#   9]+0.006*[#  10]+0.003*[#  20]+0.003*[#   5]
          +0.001*[#  19]+0.001*[#  21]+0.001*[#  25]
    |psi|^2 = 0.888
==== e(  20) =    14.19191 eV ==== 
     psi = 0.565*[#   8]+0.066*[#  23]+0.066*[#  24]+0.066*[#  27]+0.066*[#  28]
          +0.052*[#  18]+0.030*[#   6]+0.030*[#   7]+0.016*[#  16]+0.016*[#  17]
          +0.009*[#  22]+0.009*[#  26]
    |psi|^2 = 0.992
==== e(  21) =    14.23036 eV ==== 
     psi = 0.610*[#   5]+0.062*[#  20]+0.039*[#   9]+0.038*[#  19]+0.029*[#  23]
          +0.029*[#  24]+0.029*[#  27]+0.029*[#  28]+0.028*[#  15]+0.024*[#  21]
          +0.024*[#  25]+0.018*[#  22]+0.018*[#  26]+0.001*[#  10]
    |psi|^2 = 0.981
==== e(  22) =    14.88936 eV ==== 
     psi = 0.747*[#  19]+0.050*[#  15]+0.029*[#  22]+0.029*[#  26]+0.028*[#  20]
          +0.017*[#   5]+0.017*[#   9]+0.013*[#  23]+0.013*[#  24]+0.013*[#  27]
          +0.013*[#  28]+0.006*[#  10]+0.006*[#  21]+0.006*[#  25]
    |psi|^2 = 0.986
==== e(  23) =    15.79651 eV ==== 
     psi = 0.444*[#  16]+0.444*[#  17]+0.005*[#  23]+0.005*[#  24]+0.005*[#  27]
          +0.005*[#  28]+0.004*[#  10]+0.004*[#  19]+0.001*[#  20]
    |psi|^2 = 0.918
==== e(  24) =    16.01090 eV ==== 
     psi = 0.452*[#  16]+0.452*[#  17]+0.013*[#  22]+0.013*[#  26]+0.012*[#  23]
          +0.012*[#  24]+0.012*[#  27]+0.012*[#  28]+0.010*[#   8]+0.007*[#  18]
          +0.001*[#   6]+0.001*[#   7]
    |psi|^2 = 0.997
==== e(  25) =    16.36628 eV ==== 
     psi = 0.529*[#  15]+0.187*[#  10]+0.058*[#  19]+0.037*[#  21]+0.037*[#  25]
          +0.028*[#  20]+0.021*[#  23]+0.021*[#  24]+0.021*[#  27]+0.021*[#  28]
          +0.005*[#   5]+0.003*[#  22]+0.003*[#  26]
    |psi|^2 = 0.972
==== e(  26) =    16.98908 eV ==== 
     psi = 0.760*[#  18]+0.045*[#  23]+0.045*[#  24]+0.045*[#  27]+0.045*[#  28]
          +0.023*[#   8]+0.004*[#  16]+0.004*[#  17]
    |psi|^2 = 0.970

 k =   0.3333333333 -0.3333333333  0.3333333333
==== e(   1) =   -90.86291 eV ==== 
     psi = 0.989*[#   1]+0.003*[#  10]+0.002*[#  20]
    |psi|^2 = 0.999
==== e(   2) =   -88.47071 eV ==== 
     psi = 0.989*[#  11]+0.003*[#  20]+0.002*[#  10]
    |psi|^2 = 0.998
==== e(   3) =   -50.84907 eV ==== 
     psi = 0.545*[#   4]+0.225*[#   3]+0.001*[#  14]
    |psi|^2 = 0.775
==== e(   4) =   -50.37532 eV ==== 
     psi = 0.437*[#   4]+0.271*[#   3]+0.016*[#  14]+0.002*[#  13]
    |psi|^2 = 0.728
==== e(   5) =   -50.27155 eV ==== 
     psi = 0.497*[#   2]+0.497*[#   3]+0.002*[#  12]+0.002*[#  13]
    |psi|^2 = 0.999
==== e(   6) =   -47.93508 eV ==== 
     psi = 0.497*[#   2]+0.448*[#  14]+0.274*[#  13]+0.002*[#  12]+0.001*[#   4]
          
    |psi|^2 = 1.225
==== e(   7) =   -47.41853 eV ==== 
     psi = 0.532*[#  14]+0.274*[#  12]+0.223*[#  13]+0.015*[#   4]+0.003*[#   3]
          
    |psi|^2 = 1.048
==== e(   8) =   -47.31288 eV ==== 
     psi = 0.497*[#  13]+0.274*[#  12]+0.002*[#   3]
    |psi|^2 = 0.774
==== e(   9) =    -6.20516 eV ==== 
     psi = 0.428*[#  21]+0.427*[#  25]+0.074*[#  10]+0.067*[#  20]
    |psi|^2 = 0.999
==== e(  10) =    -5.95151 eV ==== 
     psi = 0.453*[#  25]+0.453*[#  21]+0.024*[#   8]+0.020*[#  18]+0.017*[#  20]
          +0.014*[#  10]+0.008*[#   5]+0.007*[#  15]
    |psi|^2 = 1.000
==== e(  11) =     6.76736 eV ==== 
     psi = 0.122*[#  10]+0.102*[#  23]+0.102*[#  27]+0.097*[#  24]+0.097*[#  28]
          +0.089*[#  20]+0.033*[#   6]+0.025*[#   7]+0.025*[#   9]+0.023*[#  21]
          +0.023*[#  25]+0.015*[#  17]+0.015*[#  19]+0.012*[#  16]+0.002*[#  11]
          +0.001*[#   1]
    |psi|^2 = 0.782
==== e(  12) =     7.16542 eV ==== 
     psi = 0.372*[#  24]+0.372*[#  28]+0.045*[#  20]+0.044*[#  10]+0.017*[#   7]
          +0.017*[#   9]+0.014*[#  23]+0.014*[#  27]+0.010*[#   8]+0.007*[#  17]
          +0.007*[#  19]+0.004*[#  18]+0.003*[#   5]+0.002*[#   6]+0.002*[#  16]
          +0.001*[#  21]+0.001*[#  25]+0.001*[#  15]+0.001*[#   4]+0.001*[#  14]
          
    |psi|^2 = 0.939
==== e(  13) =     8.71672 eV ==== 
     psi = 0.163*[#  22]+0.163*[#  23]+0.163*[#  26]+0.163*[#  27]+0.072*[#   6]
          +0.056*[#   8]+0.052*[#  24]+0.052*[#  28]+0.024*[#  16]+0.019*[#   5]
          +0.016*[#  20]+0.009*[#  10]+0.002*[#  21]+0.002*[#  25]+0.002*[#   7]
          +0.002*[#   9]
    |psi|^2 = 0.963
==== e(  14) =     9.24485 eV ==== 
     psi = 0.228*[#   5]+0.163*[#  22]+0.163*[#  26]+0.161*[#  23]+0.161*[#  27]
          +0.076*[#   8]+0.012*[#  15]+0.006*[#  17]+0.006*[#  19]+0.004*[#  18]
          +0.002*[#   7]+0.002*[#   9]
    |psi|^2 = 0.987
==== e(  15) =     9.42993 eV ==== 
     psi = 0.207*[#  24]+0.207*[#  28]+0.161*[#  22]+0.161*[#  26]+0.116*[#   8]
          +0.081*[#  18]+0.068*[#  23]+0.068*[#  27]+0.039*[#   5]+0.027*[#  15]
          +0.018*[#  16]+0.003*[#   7]+0.003*[#   9]+0.003*[#   6]+0.002*[#  17]
          +0.002*[#  19]
    |psi|^2 = 1.169
==== e(  16) =     9.70816 eV ==== 
     psi = 0.205*[#  23]+0.205*[#  27]+0.161*[#  22]+0.161*[#  26]+0.084*[#  15]
          +0.028*[#  18]+0.023*[#   7]+0.023*[#   9]
    |psi|^2 = 0.890
==== e(  17) =    12.09149 eV ==== 
     psi = 0.724*[#   6]+0.059*[#  16]+0.023*[#   8]+0.023*[#   7]+0.023*[#   9]
          +0.018*[#  22]+0.018*[#  23]+0.018*[#  26]+0.018*[#  27]+0.013*[#  10]
          +0.008*[#   5]+0.004*[#  24]+0.004*[#  28]+0.003*[#  21]+0.003*[#  25]
          +0.002*[#  18]
    |psi|^2 = 0.962
==== e(  18) =    12.98990 eV ==== 
     psi = 0.402*[#   7]+0.402*[#   9]+0.028*[#   8]+0.027*[#   6]+0.019*[#  24]
          +0.019*[#  28]+0.018*[#  22]+0.018*[#  26]+0.017*[#  20]+0.010*[#  16]
          +0.009*[#   5]+0.008*[#  23]+0.008*[#  27]+0.003*[#  21]+0.003*[#  25]
          +0.002*[#  10]
    |psi|^2 = 0.995
==== e(  19) =    13.05741 eV ==== 
     psi = 0.458*[#   7]+0.458*[#   9]+0.015*[#  15]+0.008*[#  22]+0.008*[#  26]
          +0.008*[#  23]+0.008*[#  27]+0.007*[#   5]+0.005*[#  18]+0.002*[#   8]
          +0.002*[#  17]+0.002*[#  19]
    |psi|^2 = 0.980
==== e(  20) =    14.37146 eV ==== 
     psi = 0.447*[#   5]+0.149*[#   8]+0.061*[#  15]+0.049*[#  23]+0.049*[#  27]
          +0.047*[#  17]+0.047*[#  19]+0.020*[#  18]+0.008*[#  22]+0.008*[#  26]
          
    |psi|^2 = 0.890
==== e(  21) =    14.79512 eV ==== 
     psi = 0.397*[#   8]+0.179*[#  16]+0.132*[#   5]+0.052*[#  24]+0.052*[#  28]
          +0.025*[#  18]+0.019*[#  22]+0.019*[#  23]+0.019*[#  26]+0.019*[#  27]
          +0.016*[#  21]+0.016*[#  25]+0.008*[#  15]+0.004*[#   7]+0.004*[#   9]
          +0.003*[#  10]
    |psi|^2 = 0.965
==== e(  22) =    15.00611 eV ==== 
     psi = 0.493*[#  16]+0.082*[#   6]+0.069*[#  17]+0.069*[#  19]+0.056*[#   8]
          +0.037*[#  18]+0.019*[#  22]+0.019*[#  26]+0.019*[#   5]+0.013*[#   7]
          +0.013*[#   9]+0.012*[#  15]+0.012*[#  23]+0.012*[#  27]+0.011*[#  20]
          +0.007*[#  21]+0.007*[#  25]+0.006*[#  10]+0.004*[#  24]+0.004*[#  28]
          
    |psi|^2 = 0.963
==== e(  23) =    15.84240 eV ==== 
     psi = 0.367*[#  17]+0.367*[#  19]+0.106*[#  16]+0.038*[#  18]+0.018*[#   6]
          +0.017*[#  10]+0.013*[#  15]+0.012*[#  22]+0.012*[#  26]+0.009*[#  24]
          +0.009*[#  28]+0.003*[#  21]+0.003*[#  25]+0.001*[#   8]
    |psi|^2 = 0.978
==== e(  24) =    16.14651 eV ==== 
     psi = 0.418*[#  17]+0.418*[#  19]+0.046*[#  15]+0.018*[#   5]+0.015*[#  18]
          +0.012*[#  22]+0.012*[#  26]+0.011*[#  23]+0.011*[#  27]+0.006*[#   8]
          
    |psi|^2 = 0.969
==== e(  25) =    17.58208 eV ==== 
     psi = 0.506*[#  15]+0.169*[#  18]+0.055*[#  22]+0.055*[#  23]+0.055*[#  26]
          +0.055*[#  27]+0.032*[#   5]+0.011*[#   8]+0.011*[#  17]+0.011*[#  19]
          +0.004*[#   7]+0.004*[#   9]
    |psi|^2 = 0.968
==== e(  26) =    17.63811 eV ==== 
     psi = 0.426*[#  18]+0.142*[#  15]+0.092*[#  24]+0.092*[#  28]+0.075*[#  10]
          +0.019*[#   8]+0.016*[#  16]+0.014*[#  17]+0.014*[#  19]+0.013*[#  25]
          +0.013*[#  21]+0.007*[#  22]+0.007*[#  23]+0.006*[#   5]+0.006*[#  26]
          +0.006*[#  27]+0.001*[#   6]+0.001*[#  20]
    |psi|^2 = 0.956

 k =  -0.6666666667  0.0000000000  0.6666666667
==== e(   1) =   -90.87284 eV ==== 
     psi = 0.982*[#   1]+0.012*[#  10]
    |psi|^2 = 0.999
==== e(   2) =   -88.47966 eV ==== 
     psi = 0.981*[#  11]+0.013*[#  20]
    |psi|^2 = 0.998
==== e(   3) =   -50.94811 eV ==== 
     psi = 0.499*[#   3]
    |psi|^2 = 0.501
==== e(   4) =   -50.88234 eV ==== 
     psi = 0.820*[#   4]+0.088*[#   3]
    |psi|^2 = 0.912
==== e(   5) =   -50.45385 eV ==== 
     psi = 0.409*[#   2]+0.409*[#   3]+0.177*[#   4]+0.001*[#  14]
    |psi|^2 = 0.999
==== e(   6) =   -48.04102 eV ==== 
     psi = 0.499*[#  13]+0.409*[#   2]
    |psi|^2 = 0.910
==== e(   7) =   -47.96901 eV ==== 
     psi = 0.869*[#  14]+0.499*[#  12]+0.063*[#  13]+0.001*[#   3]
    |psi|^2 = 1.434
==== e(   8) =   -47.60971 eV ==== 
     psi = 0.499*[#  12]+0.435*[#  13]+0.128*[#  14]
    |psi|^2 = 1.063
==== e(   9) =    -5.87499 eV ==== 
     psi = 0.483*[#  21]+0.466*[#  25]+0.019*[#   8]+0.016*[#  18]+0.006*[#   5]
          +0.005*[#  15]
    |psi|^2 = 0.998
==== e(  10) =    -5.87289 eV ==== 
     psi = 0.484*[#  25]+0.466*[#  21]+0.019*[#   5]+0.016*[#  15]+0.006*[#   8]
          +0.005*[#  18]
    |psi|^2 = 0.998
==== e(  11) =     7.04711 eV ==== 
     psi = 0.123*[#  23]+0.123*[#  27]+0.101*[#  24]+0.101*[#  28]+0.091*[#  10]
          +0.068*[#  20]+0.035*[#   7]+0.035*[#   9]+0.019*[#  17]+0.019*[#  19]
          +0.009*[#   6]+0.006*[#  16]+0.002*[#   8]+0.002*[#  18]
    |psi|^2 = 0.739
==== e(  12) =     7.20102 eV ==== 
     psi = 0.167*[#  23]+0.167*[#  27]+0.089*[#  10]+0.084*[#  20]+0.066*[#   6]
          +0.034*[#  16]+0.024*[#   8]+0.009*[#  18]+0.008*[#   5]+0.003*[#  15]
          
    |psi|^2 = 0.655
==== e(  13) =     7.73167 eV ==== 
     psi = 0.376*[#  24]+0.376*[#  28]+0.065*[#   7]+0.065*[#   9]+0.014*[#  17]
          +0.014*[#  19]+0.009*[#  22]+0.009*[#  23]+0.009*[#  26]+0.009*[#  27]
          
    |psi|^2 = 0.951
==== e(  14) =     8.21028 eV ==== 
     psi = 0.185*[#  23]+0.185*[#  27]+0.049*[#   5]+0.027*[#  17]+0.027*[#  19]
          +0.025*[#  24]+0.025*[#  28]+0.016*[#   8]+0.016*[#   7]+0.016*[#   9]
          +0.009*[#  22]+0.009*[#  26]+0.006*[#  15]+0.002*[#  18]
    |psi|^2 = 0.599
==== e(  15) =     8.68765 eV ==== 
     psi = 0.225*[#  24]+0.225*[#  28]+0.185*[#  22]+0.185*[#  26]+0.137*[#   8]
          +0.061*[#  18]+0.058*[#  23]+0.058*[#  27]+0.046*[#   5]+0.020*[#  15]
          +0.011*[#   6]+0.011*[#  10]+0.004*[#  20]+0.002*[#   7]+0.002*[#   9]
          +0.001*[#  16]
    |psi|^2 = 1.236
==== e(  16) =     9.04889 eV ==== 
     psi = 0.185*[#  22]+0.185*[#  26]+0.172*[#  23]+0.172*[#  27]+0.135*[#   5]
          +0.077*[#  15]+0.045*[#   8]+0.026*[#  18]+0.002*[#   7]+0.002*[#   9]
          +0.001*[#  17]+0.001*[#  19]+0.001*[#  24]+0.001*[#  28]
    |psi|^2 = 1.007
==== e(  17) =    12.61442 eV ==== 
     psi = 0.752*[#   6]+0.060*[#   7]+0.060*[#   9]+0.023*[#   8]+0.010*[#  22]
          +0.010*[#  23]+0.010*[#  26]+0.010*[#  27]+0.008*[#  18]+0.008*[#   5]
          +0.006*[#  10]+0.005*[#  24]+0.005*[#  28]+0.003*[#  15]+0.001*[#  21]
          +0.001*[#  25]
    |psi|^2 = 0.976
==== e(  18) =    12.78562 eV ==== 
     psi = 0.377*[#   7]+0.377*[#   9]+0.045*[#   5]+0.037*[#  24]+0.037*[#  28]
          +0.015*[#   8]+0.015*[#  23]+0.015*[#  27]+0.013*[#  15]+0.010*[#  22]
          +0.010*[#  26]+0.004*[#  18]+0.004*[#  17]+0.004*[#  19]+0.002*[#  21]
          +0.002*[#  25]
    |psi|^2 = 0.968
==== e(  19) =    12.91977 eV ==== 
     psi = 0.386*[#   7]+0.386*[#   9]+0.078*[#   6]+0.024*[#  23]+0.024*[#  27]
          +0.015*[#  22]+0.015*[#  26]+0.013*[#   8]+0.004*[#   5]+0.004*[#  16]
          +0.004*[#  20]+0.003*[#  10]+0.003*[#  18]
    |psi|^2 = 0.960
==== e(  20) =    14.21286 eV ==== 
     psi = 0.485*[#   8]+0.162*[#   5]+0.055*[#   6]+0.052*[#  16]+0.045*[#  20]
          +0.043*[#  24]+0.043*[#  28]+0.020*[#  18]+0.015*[#  22]+0.015*[#  26]
          +0.013*[#  21]+0.013*[#  25]+0.008*[#  23]+0.008*[#  27]+0.007*[#  15]
          +0.004*[#   7]+0.004*[#   9]
    |psi|^2 = 0.992
==== e(  21) =    14.50601 eV ==== 
     psi = 0.444*[#   5]+0.148*[#   8]+0.045*[#  22]+0.045*[#  23]+0.045*[#  26]
          +0.045*[#  27]+0.037*[#  17]+0.037*[#  19]+0.029*[#   7]+0.029*[#   9]
          +0.018*[#  15]+0.012*[#  21]+0.012*[#  25]+0.010*[#  24]+0.010*[#  28]
          +0.006*[#  18]
    |psi|^2 = 0.972
==== e(  22) =    15.46947 eV ==== 
     psi = 0.820*[#  16]+0.045*[#  22]+0.045*[#  26]+0.023*[#   8]+0.015*[#  23]
          +0.015*[#  27]+0.008*[#  18]+0.008*[#   5]+0.007*[#  20]+0.006*[#  24]
          +0.006*[#  28]+0.006*[#  17]+0.006*[#  19]+0.003*[#  15]
    |psi|^2 = 1.013
==== e(  23) =    15.62684 eV ==== 
     psi = 0.386*[#  17]+0.386*[#  19]+0.043*[#   5]+0.024*[#  24]+0.024*[#  28]
          +0.020*[#  23]+0.020*[#  27]+0.015*[#  22]+0.015*[#  26]+0.014*[#   8]
          +0.008*[#  15]+0.003*[#  18]
    |psi|^2 = 0.958
==== e(  24) =    15.69267 eV ==== 
     psi = 0.453*[#  17]+0.453*[#  19]+0.015*[#  22]+0.015*[#  26]+0.010*[#  23]
          +0.010*[#  27]+0.008*[#  16]+0.002*[#  10]+0.002*[#  24]+0.002*[#  28]
          +0.001*[#   7]+0.001*[#   9]+0.001*[#  20]
    |psi|^2 = 0.973
==== e(  25) =    16.88590 eV ==== 
     psi = 0.570*[#  18]+0.190*[#  15]+0.083*[#  10]+0.022*[#  24]+0.022*[#  28]
          +0.020*[#  16]+0.008*[#  21]+0.008*[#  25]+0.008*[#  22]+0.008*[#  23]
          +0.008*[#  26]+0.008*[#  27]+0.003*[#   8]+0.001*[#   1]
    |psi|^2 = 0.962
==== e(  26) =    17.25225 eV ==== 
     psi = 0.589*[#  15]+0.196*[#  18]+0.035*[#  22]+0.035*[#  23]+0.035*[#  26]
          +0.035*[#  27]+0.010*[#  17]+0.010*[#  19]+0.009*[#  21]+0.009*[#  25]
          +0.002*[#   5]
    |psi|^2 = 0.966

 k =  -0.3333333333  0.3333333333  0.3333333333
==== e(   1) =   -90.86291 eV ==== 
     psi = 0.989*[#   1]+0.003*[#  10]+0.002*[#  20]
    |psi|^2 = 0.999
==== e(   2) =   -88.47071 eV ==== 
     psi = 0.989*[#  11]+0.003*[#  20]+0.002*[#  10]
    |psi|^2 = 0.998
==== e(   3) =   -50.84908 eV ==== 
     psi = 0.545*[#   3]+0.225*[#   4]+0.001*[#  13]
    |psi|^2 = 0.775
==== e(   4) =   -50.37532 eV ==== 
     psi = 0.437*[#   3]+0.271*[#   4]+0.016*[#  13]+0.002*[#  14]
    |psi|^2 = 0.728
==== e(   5) =   -50.27155 eV ==== 
     psi = 0.497*[#   2]+0.497*[#   4]+0.002*[#  12]+0.002*[#  14]
    |psi|^2 = 0.999
==== e(   6) =   -47.93508 eV ==== 
     psi = 0.448*[#  13]+0.274*[#  14]+0.001*[#   3]
    |psi|^2 = 0.725
==== e(   7) =   -47.41853 eV ==== 
     psi = 0.532*[#  13]+0.274*[#  12]+0.223*[#  14]+0.015*[#   3]+0.003*[#   4]
          
    |psi|^2 = 1.048
==== e(   8) =   -47.31288 eV ==== 
     psi = 0.497*[#  14]+0.448*[#  12]+0.002*[#   4]+0.001*[#   2]
    |psi|^2 = 0.950
==== e(   9) =    -6.20516 eV ==== 
     psi = 0.428*[#  21]+0.427*[#  25]+0.074*[#  10]+0.067*[#  20]
    |psi|^2 = 0.999
==== e(  10) =    -5.95151 eV ==== 
     psi = 0.453*[#  25]+0.453*[#  21]+0.024*[#   8]+0.020*[#  18]+0.017*[#  20]
          +0.014*[#  10]+0.008*[#   5]+0.007*[#  15]
    |psi|^2 = 1.000
==== e(  11) =     6.76736 eV ==== 
     psi = 0.122*[#  10]+0.102*[#  24]+0.102*[#  28]+0.097*[#  23]+0.097*[#  27]
          +0.089*[#  20]+0.033*[#   7]+0.025*[#   6]+0.025*[#   9]+0.023*[#  21]
          +0.023*[#  25]+0.015*[#  16]+0.015*[#  19]+0.012*[#  17]+0.002*[#  11]
          +0.001*[#   1]
    |psi|^2 = 0.782
==== e(  12) =     7.16542 eV ==== 
     psi = 0.372*[#  23]+0.372*[#  27]+0.045*[#  20]+0.044*[#  10]+0.017*[#   6]
          +0.017*[#   9]+0.014*[#  24]+0.014*[#  28]+0.010*[#   8]+0.007*[#  16]
          +0.007*[#  19]+0.004*[#  18]+0.003*[#   5]+0.002*[#   7]+0.002*[#  17]
          +0.001*[#  21]+0.001*[#  25]+0.001*[#  15]+0.001*[#   3]+0.001*[#  13]
          
    |psi|^2 = 0.940
==== e(  13) =     8.71672 eV ==== 
     psi = 0.163*[#  22]+0.163*[#  24]+0.163*[#  26]+0.163*[#  28]+0.072*[#   7]
          +0.056*[#   8]+0.052*[#  23]+0.052*[#  27]+0.024*[#  17]+0.019*[#   5]
          +0.016*[#  20]+0.009*[#  10]+0.002*[#  21]+0.002*[#  25]+0.002*[#   6]
          +0.002*[#   9]
    |psi|^2 = 0.963
==== e(  14) =     9.24485 eV ==== 
     psi = 0.228*[#   5]+0.161*[#  24]+0.161*[#  28]+0.076*[#   8]+0.052*[#  22]
          +0.052*[#  26]+0.012*[#  15]+0.006*[#  16]+0.006*[#  19]+0.004*[#  18]
          +0.002*[#   6]+0.002*[#   9]
    |psi|^2 = 0.764
==== e(  15) =     9.42993 eV ==== 
     psi = 0.207*[#  23]+0.207*[#  27]+0.161*[#  22]+0.161*[#  26]+0.116*[#   8]
          +0.081*[#  18]+0.068*[#  24]+0.068*[#  28]+0.039*[#   5]+0.027*[#  15]
          +0.018*[#  17]+0.003*[#   6]+0.003*[#   9]+0.003*[#   7]+0.002*[#  16]
          +0.002*[#  19]
    |psi|^2 = 1.169
==== e(  16) =     9.70816 eV ==== 
     psi = 0.205*[#  24]+0.205*[#  28]+0.084*[#  15]+0.028*[#  18]+0.023*[#   6]
          +0.023*[#   9]
    |psi|^2 = 0.566
==== e(  17) =    12.09149 eV ==== 
     psi = 0.724*[#   7]+0.059*[#  17]+0.023*[#   8]+0.023*[#   6]+0.023*[#   9]
          +0.018*[#  22]+0.018*[#  24]+0.018*[#  26]+0.018*[#  28]+0.013*[#  10]
          +0.008*[#   5]+0.004*[#  23]+0.004*[#  27]+0.003*[#  21]+0.003*[#  25]
          +0.002*[#  18]
    |psi|^2 = 0.962
==== e(  18) =    12.98990 eV ==== 
     psi = 0.402*[#   6]+0.402*[#   9]+0.028*[#   8]+0.027*[#   7]+0.019*[#  23]
          +0.019*[#  27]+0.017*[#  20]+0.010*[#  17]+0.009*[#   5]+0.008*[#  24]
          +0.008*[#  28]+0.004*[#  22]+0.004*[#  26]+0.003*[#  21]+0.003*[#  25]
          +0.002*[#  10]
    |psi|^2 = 0.966
==== e(  19) =    13.05742 eV ==== 
     psi = 0.458*[#   6]+0.458*[#   9]+0.015*[#  15]+0.008*[#  22]+0.008*[#  26]
          +0.008*[#  24]+0.008*[#  28]+0.007*[#   5]+0.005*[#  18]+0.002*[#   8]
          +0.002*[#  16]+0.002*[#  19]
    |psi|^2 = 0.980
==== e(  20) =    14.37146 eV ==== 
     psi = 0.447*[#   5]+0.149*[#   8]+0.061*[#  15]+0.049*[#  24]+0.049*[#  28]
          +0.047*[#  16]+0.047*[#  19]+0.020*[#  18]+0.019*[#  22]+0.019*[#  26]
          
    |psi|^2 = 0.911
==== e(  21) =    14.79512 eV ==== 
     psi = 0.397*[#   8]+0.179*[#  17]+0.132*[#   5]+0.052*[#  23]+0.052*[#  27]
          +0.025*[#  18]+0.019*[#  22]+0.019*[#  24]+0.019*[#  26]+0.019*[#  28]
          +0.016*[#  21]+0.016*[#  25]+0.008*[#  15]+0.004*[#   6]+0.004*[#   9]
          +0.003*[#  10]
    |psi|^2 = 0.965
==== e(  22) =    15.00611 eV ==== 
     psi = 0.493*[#  17]+0.082*[#   7]+0.069*[#  16]+0.069*[#  19]+0.056*[#   8]
          +0.052*[#  22]+0.052*[#  26]+0.037*[#  18]+0.019*[#   5]+0.013*[#   6]
          +0.013*[#   9]+0.012*[#  15]+0.012*[#  24]+0.012*[#  28]+0.011*[#  20]
          +0.007*[#  21]+0.007*[#  25]+0.006*[#  10]+0.004*[#  23]+0.004*[#  27]
          
    |psi|^2 = 1.028
==== e(  23) =    15.84240 eV ==== 
     psi = 0.367*[#  16]+0.367*[#  19]+0.106*[#  17]+0.038*[#  18]+0.018*[#   7]
          +0.017*[#  10]+0.013*[#  15]+0.012*[#  22]+0.012*[#  26]+0.009*[#  23]
          +0.009*[#  27]+0.003*[#  21]+0.003*[#  25]+0.001*[#   8]
    |psi|^2 = 0.978
==== e(  24) =    16.14651 eV ==== 
     psi = 0.418*[#  16]+0.418*[#  19]+0.046*[#  15]+0.018*[#   5]+0.015*[#  18]
          +0.011*[#  24]+0.011*[#  28]+0.006*[#   8]+0.004*[#  22]+0.004*[#  26]
          
    |psi|^2 = 0.953
==== e(  25) =    17.58208 eV ==== 
     psi = 0.506*[#  15]+0.169*[#  18]+0.055*[#  22]+0.055*[#  24]+0.055*[#  26]
          +0.055*[#  28]+0.032*[#   5]+0.011*[#   8]+0.011*[#  16]+0.011*[#  19]
          +0.004*[#   6]+0.004*[#   9]
    |psi|^2 = 0.968
==== e(  26) =    17.63812 eV ==== 
     psi = 0.426*[#  18]+0.142*[#  15]+0.092*[#  23]+0.092*[#  27]+0.075*[#  10]
          +0.019*[#   8]+0.016*[#  17]+0.014*[#  16]+0.014*[#  19]+0.013*[#  25]
          +0.013*[#  21]+0.007*[#  22]+0.007*[#  24]+0.006*[#   5]+0.006*[#  26]
          +0.006*[#  28]+0.001*[#   7]+0.001*[#  20]
    |psi|^2 = 0.956

 k =   0.1666666667  0.1666666667  0.1666666667
==== e(   1) =   -90.85048 eV ==== 
     psi = 0.991*[#   1]+0.002*[#  10]+0.002*[#  20]
    |psi|^2 = 0.999
==== e(   2) =   -88.45965 eV ==== 
     psi = 0.990*[#  11]+0.002*[#  10]+0.002*[#  20]
    |psi|^2 = 0.998
==== e(   3) =   -50.44308 eV ==== 
     psi = 0.330*[#   3]+0.330*[#   4]+0.003*[#  13]+0.003*[#  14]+0.002*[#  20]
          
    |psi|^2 = 0.668
==== e(   4) =   -50.13212 eV ==== 
     psi = 0.274*[#   3]+0.079*[#   4]
    |psi|^2 = 0.354
==== e(   5) =   -50.13212 eV ==== 
     psi = 0.587*[#   4]+0.392*[#   3]+0.020*[#   2]
    |psi|^2 = 1.000
==== e(   6) =   -47.56616 eV ==== 
     psi = 0.392*[#   2]+0.330*[#  13]+0.330*[#  14]+0.003*[#   3]+0.003*[#   4]
          +0.002*[#  10]
    |psi|^2 = 1.060
==== e(   7) =   -47.18949 eV ==== 
     psi = 0.330*[#  12]+0.261*[#  14]+0.088*[#  13]+0.003*[#   2]
    |psi|^2 = 0.681
==== e(   8) =   -47.18949 eV ==== 
     psi = 0.578*[#  13]+0.405*[#  14]+0.330*[#  12]+0.003*[#   2]
    |psi|^2 = 1.317
==== e(   9) =    -6.75207 eV ==== 
     psi = 0.346*[#  21]+0.346*[#  25]+0.161*[#  10]+0.140*[#  20]+0.002*[#   1]
          +0.002*[#  11]
    |psi|^2 = 0.999
==== e(  10) =    -6.20149 eV ==== 
     psi = 0.428*[#  21]+0.428*[#  25]+0.076*[#  20]+0.064*[#  10]
    |psi|^2 = 0.998
==== e(  11) =     6.72359 eV ==== 
     psi = 0.122*[#  10]+0.100*[#  23]+0.100*[#  24]+0.100*[#  27]+0.100*[#  28]
          +0.089*[#  20]+0.029*[#   6]+0.029*[#   7]+0.029*[#   9]+0.023*[#  21]
          +0.023*[#  25]+0.013*[#  16]+0.013*[#  17]+0.013*[#  19]+0.002*[#   1]
          +0.001*[#  11]
    |psi|^2 = 0.787
==== e(  12) =     9.07403 eV ==== 
     psi = 0.111*[#  23]+0.111*[#  24]+0.111*[#  27]+0.111*[#  28]+0.092*[#  20]
          +0.062*[#  10]+0.042*[#  21]+0.042*[#  25]+0.016*[#   6]+0.016*[#   7]
          +0.016*[#   9]+0.011*[#  16]+0.011*[#  17]+0.011*[#  19]+0.002*[#  11]
          +0.001*[#   1]
    |psi|^2 = 0.763
==== e(  13) =     9.29303 eV ==== 
     psi = 0.203*[#  24]+0.203*[#  28]+0.194*[#   8]+0.084*[#   5]+0.062*[#  22]
          +0.062*[#  26]+0.041*[#  23]+0.041*[#  27]+0.036*[#  18]+0.025*[#   6]
          +0.016*[#  15]+0.008*[#   9]+0.005*[#   7]+0.004*[#  16]+0.001*[#  19]
          
    |psi|^2 = 0.985
==== e(  14) =     9.29303 eV ==== 
     psi = 0.194*[#   5]+0.163*[#  23]+0.163*[#  27]+0.084*[#   8]+0.041*[#  22]
          +0.041*[#  26]+0.036*[#  15]+0.020*[#   7]+0.018*[#   9]+0.016*[#  18]
          +0.003*[#  17]+0.003*[#  19]
    |psi|^2 = 0.783
==== e(  15) =    10.59229 eV ==== 
     psi = 0.269*[#  24]+0.269*[#  28]+0.142*[#  22]+0.142*[#  26]+0.070*[#  18]
          +0.059*[#  23]+0.059*[#  27]+0.028*[#  15]+0.026*[#   8]+0.014*[#  16]
          +0.012*[#   6]+0.010*[#   5]+0.004*[#  19]+0.003*[#   9]+0.003*[#  17]
          +0.003*[#   7]
    |psi|^2 = 1.114
==== e(  16) =    10.59229 eV ==== 
     psi = 0.211*[#  23]+0.211*[#  27]+0.163*[#  22]+0.163*[#  26]+0.070*[#  15]
          +0.028*[#  18]+0.026*[#   5]+0.011*[#  17]+0.010*[#   8]+0.010*[#  19]
          +0.010*[#   7]+0.009*[#   9]
    |psi|^2 = 0.924
==== e(  17) =    12.77698 eV ==== 
     psi = 0.483*[#   9]+0.339*[#   7]+0.096*[#   5]+0.015*[#   8]+0.013*[#   6]
[...]
     psi = 0.428*[#  21]+0.427*[#  25]+0.074*[#  20]+0.067*[#  10]
    |psi|^2 = 0.999
==== e(  10) =    -5.95148 eV ==== 
     psi = 0.453*[#  25]+0.453*[#  21]+0.024*[#  18]+0.020*[#   8]+0.017*[#  10]
          +0.014*[#  20]+0.008*[#  15]+0.007*[#   5]
    |psi|^2 = 1.000
==== e(  11) =     6.76738 eV ==== 
     psi = 0.122*[#  20]+0.102*[#  24]+0.102*[#  28]+0.097*[#  23]+0.097*[#  27]
          +0.089*[#  10]+0.033*[#  17]+0.025*[#  16]+0.025*[#  19]+0.023*[#  21]
          +0.023*[#  25]+0.015*[#   6]+0.015*[#   9]+0.012*[#   7]+0.002*[#   1]
          +0.001*[#  11]
    |psi|^2 = 0.782
==== e(  12) =     7.16544 eV ==== 
     psi = 0.372*[#  23]+0.372*[#  27]+0.045*[#  10]+0.044*[#  20]+0.017*[#  16]
          +0.017*[#  19]+0.014*[#  24]+0.014*[#  28]+0.010*[#  18]+0.007*[#   6]
          +0.007*[#   9]+0.004*[#   8]+0.003*[#  15]+0.002*[#   7]+0.002*[#  17]
          +0.001*[#  21]+0.001*[#  25]+0.001*[#   5]+0.001*[#   3]+0.001*[#  13]
          
    |psi|^2 = 0.940
==== e(  13) =     8.71674 eV ==== 
     psi = 0.163*[#  22]+0.163*[#  24]+0.163*[#  26]+0.163*[#  28]+0.072*[#  17]
          +0.056*[#  18]+0.052*[#  23]+0.052*[#  27]+0.024*[#   7]+0.019*[#  15]
          +0.016*[#  10]+0.009*[#  20]+0.002*[#  21]+0.002*[#  25]+0.002*[#  16]
          +0.002*[#  19]
    |psi|^2 = 0.963
==== e(  14) =     9.24487 eV ==== 
     psi = 0.228*[#  15]+0.161*[#  24]+0.161*[#  28]+0.076*[#  18]+0.052*[#  22]
          +0.052*[#  26]+0.012*[#   5]+0.006*[#   6]+0.006*[#   9]+0.004*[#   8]
          +0.002*[#  16]+0.002*[#  19]
    |psi|^2 = 0.764
==== e(  15) =     9.42995 eV ==== 
     psi = 0.207*[#  23]+0.207*[#  27]+0.161*[#  22]+0.161*[#  26]+0.116*[#  18]
          +0.081*[#   8]+0.068*[#  24]+0.068*[#  28]+0.039*[#  15]+0.027*[#   5]
          +0.018*[#   7]+0.003*[#  16]+0.003*[#  19]+0.003*[#  17]+0.002*[#   6]
          +0.002*[#   9]+0.001*[#  10]
    |psi|^2 = 1.169
==== e(  16) =     9.70818 eV ==== 
     psi = 0.205*[#  24]+0.205*[#  28]+0.084*[#   5]+0.028*[#   8]+0.023*[#  16]
          +0.023*[#  19]
    |psi|^2 = 0.566
==== e(  17) =    12.09153 eV ==== 
     psi = 0.724*[#  17]+0.059*[#   7]+0.023*[#  18]+0.023*[#  16]+0.023*[#  19]
          +0.018*[#  22]+0.018*[#  24]+0.018*[#  26]+0.018*[#  28]+0.013*[#  20]
          +0.008*[#  15]+0.004*[#  23]+0.004*[#  27]+0.003*[#  21]+0.003*[#  25]
          +0.002*[#   8]
    |psi|^2 = 0.962
==== e(  18) =    12.98993 eV ==== 
     psi = 0.402*[#  16]+0.402*[#  19]+0.028*[#  18]+0.027*[#  17]+0.019*[#  23]
          +0.019*[#  27]+0.017*[#  10]+0.010*[#   7]+0.009*[#  15]+0.008*[#  24]
          +0.008*[#  28]+0.004*[#  22]+0.004*[#  26]+0.003*[#  21]+0.003*[#  25]
          +0.002*[#  20]
    |psi|^2 = 0.966
==== e(  19) =    13.05748 eV ==== 
     psi = 0.458*[#  16]+0.458*[#  19]+0.015*[#   5]+0.008*[#  22]+0.008*[#  26]
          +0.008*[#  24]+0.008*[#  28]+0.007*[#  15]+0.005*[#   8]+0.002*[#  18]
          +0.002*[#   6]+0.002*[#   9]
    |psi|^2 = 0.980
==== e(  20) =    14.37148 eV ==== 
     psi = 0.447*[#  15]+0.149*[#  18]+0.061*[#   5]+0.049*[#  24]+0.049*[#  28]
          +0.047*[#   6]+0.047*[#   9]+0.020*[#   8]+0.019*[#  22]+0.019*[#  26]
          
    |psi|^2 = 0.911
==== e(  21) =    14.79514 eV ==== 
     psi = 0.397*[#  18]+0.179*[#   7]+0.132*[#  15]+0.052*[#  23]+0.052*[#  27]
          +0.025*[#   8]+0.019*[#  22]+0.019*[#  24]+0.019*[#  26]+0.019*[#  28]
          +0.016*[#  21]+0.016*[#  25]+0.008*[#   5]+0.004*[#  16]+0.004*[#  19]
          +0.003*[#  20]
    |psi|^2 = 0.965
==== e(  22) =    15.00612 eV ==== 
     psi = 0.493*[#   7]+0.082*[#  17]+0.069*[#   6]+0.069*[#   9]+0.056*[#  18]
          +0.052*[#  22]+0.052*[#  26]+0.037*[#   8]+0.019*[#  15]+0.013*[#  16]
          +0.013*[#  19]+0.012*[#   5]+0.012*[#  24]+0.012*[#  28]+0.011*[#  10]
          +0.007*[#  21]+0.007*[#  25]+0.006*[#  20]+0.004*[#  23]+0.004*[#  27]
          
    |psi|^2 = 1.028
==== e(  23) =    15.84240 eV ==== 
     psi = 0.367*[#   6]+0.367*[#   9]+0.106*[#   7]+0.038*[#   8]+0.018*[#  17]
          +0.017*[#  20]+0.013*[#   5]+0.012*[#  22]+0.012*[#  26]+0.009*[#  23]
          +0.009*[#  27]+0.003*[#  21]+0.003*[#  25]+0.001*[#  18]
    |psi|^2 = 0.978
==== e(  24) =    16.14652 eV ==== 
     psi = 0.418*[#   6]+0.418*[#   9]+0.046*[#   5]+0.018*[#  15]+0.015*[#   8]
          +0.011*[#  24]+0.011*[#  28]+0.006*[#  18]+0.004*[#  22]+0.004*[#  26]
          
    |psi|^2 = 0.953
==== e(  25) =    17.58209 eV ==== 
     psi = 0.506*[#   5]+0.169*[#   8]+0.055*[#  28]+0.055*[#  22]+0.055*[#  24]
          +0.055*[#  26]+0.032*[#  15]+0.011*[#  18]+0.011*[#   6]+0.011*[#   9]
          +0.004*[#  16]+0.004*[#  19]
    |psi|^2 = 0.968
==== e(  26) =    17.63806 eV ==== 
     psi = 0.455*[#   8]+0.152*[#   5]+0.085*[#  23]+0.085*[#  27]+0.051*[#  20]
          +0.020*[#  18]+0.018*[#   7]+0.013*[#   6]+0.013*[#   9]+0.012*[#  25]
          +0.011*[#  21]+0.010*[#  22]+0.010*[#  24]+0.009*[#  26]+0.009*[#  28]
          +0.007*[#  15]+0.002*[#  17]
    |psi|^2 = 0.963

 k =   0.8333333333 -0.5000000000 -0.5000000000
==== e(   1) =   -90.87020 eV ==== 
     psi = 0.992*[#  11]+0.002*[#  20]
    |psi|^2 = 0.999
==== e(   2) =   -88.47768 eV ==== 
     psi = 0.991*[#   1]+0.002*[#  10]
    |psi|^2 = 0.998
==== e(   3) =   -50.96105 eV ==== 
     psi = 0.772*[#  13]+0.108*[#  14]+0.003*[#   4]+0.002*[#   3]
    |psi|^2 = 0.889
==== e(   4) =   -50.60212 eV ==== 
     psi = 0.380*[#  14]+0.220*[#  13]+0.007*[#   4]+0.004*[#   3]
    |psi|^2 = 0.614
==== e(   5) =   -50.40791 eV ==== 
     psi = 0.499*[#  12]+0.499*[#  14]
    |psi|^2 = 0.999
==== e(   6) =   -48.00665 eV ==== 
     psi = 0.889*[#   3]+0.049*[#   4]+0.004*[#  13]+0.003*[#  14]
    |psi|^2 = 0.948
==== e(   7) =   -47.67007 eV ==== 
     psi = 0.440*[#   4]+0.101*[#   3]+0.049*[#   2]+0.008*[#  14]+0.003*[#  12]
          +0.001*[#  13]
    |psi|^2 = 0.603
==== e(   8) =   -47.47523 eV ==== 
     psi = 0.889*[#   2]+0.499*[#   4]+0.004*[#  12]
    |psi|^2 = 1.394
==== e(   9) =    -6.15886 eV ==== 
     psi = 0.423*[#  21]+0.422*[#  25]+0.057*[#  20]+0.052*[#  10]+0.016*[#  18]
          +0.014*[#   8]+0.005*[#  15]+0.005*[#   5]+0.001*[#  23]+0.001*[#  27]
          
    |psi|^2 = 0.999
==== e(  10) =    -6.01300 eV ==== 
     psi = 0.463*[#  25]+0.463*[#  21]+0.027*[#  10]+0.026*[#  20]+0.007*[#  18]
          +0.005*[#   8]+0.002*[#  15]+0.002*[#   5]+0.001*[#  22]+0.001*[#  26]
          
    |psi|^2 = 1.000
==== e(  11) =     6.41937 eV ==== 
     psi = 0.130*[#  24]+0.130*[#  28]+0.119*[#  20]+0.102*[#  10]+0.047*[#  23]
          +0.047*[#  27]+0.043*[#  17]+0.021*[#   7]+0.018*[#  16]+0.018*[#  19]
          +0.011*[#  18]+0.010*[#   6]+0.010*[#   9]+0.008*[#  21]+0.008*[#  25]
          +0.006*[#   8]+0.004*[#  15]+0.002*[#   5]
    |psi|^2 = 0.736
==== e(  12) =     7.11415 eV ==== 
     psi = 0.354*[#  23]+0.354*[#  27]+0.081*[#  20]+0.073*[#  10]+0.056*[#  18]
          +0.023*[#   8]+0.019*[#  15]+0.008*[#   5]+0.007*[#  21]+0.007*[#  25]
          
    |psi|^2 = 0.984
==== e(  13) =     8.78702 eV ==== 
     psi = 0.309*[#  23]+0.309*[#  27]+0.053*[#  18]+0.044*[#  16]+0.044*[#  19]
          +0.028*[#   8]+0.025*[#  22]+0.025*[#  24]+0.025*[#  26]+0.025*[#  28]
          +0.018*[#  15]+0.016*[#   6]+0.016*[#   9]+0.010*[#  17]+0.009*[#   5]
          +0.004*[#  20]+0.003*[#   7]
    |psi|^2 = 0.965
==== e(  14) =     8.87969 eV ==== 
     psi = 0.309*[#  22]+0.309*[#  26]+0.207*[#  15]+0.151*[#  24]+0.151*[#  28]
          +0.072*[#   5]+0.069*[#  18]+0.024*[#   8]+0.004*[#  16]+0.004*[#  19]
          +0.002*[#   6]+0.002*[#   9]
    |psi|^2 = 1.304
==== e(  15) =    10.05788 eV ==== 
     psi = 0.218*[#  24]+0.218*[#  28]+0.151*[#  22]+0.151*[#  26]+0.038*[#  16]
          +0.038*[#  19]+0.010*[#   6]+0.010*[#   9]
    |psi|^2 = 0.836
==== e(  16) =    10.06289 eV ==== 
     psi = 0.220*[#  24]+0.220*[#  28]+0.026*[#  16]+0.026*[#  19]+0.014*[#   6]
          +0.014*[#   9]+0.005*[#  23]+0.005*[#  27]
    |psi|^2 = 0.530
==== e(  17) =    11.98271 eV ==== 
     psi = 0.809*[#  17]+0.085*[#   7]+0.017*[#  18]+0.006*[#  15]+0.004*[#  22]
          +0.004*[#  24]+0.004*[#  26]+0.004*[#  28]+0.004*[#   8]+0.003*[#  16]
          +0.003*[#  19]+0.002*[#  20]+0.001*[#   5]
    |psi|^2 = 0.948
==== e(  18) =    12.83220 eV ==== 
     psi = 0.420*[#  16]+0.420*[#  19]+0.042*[#  15]+0.017*[#  24]+0.017*[#  28]
          +0.014*[#  18]+0.008*[#   6]+0.008*[#   9]
    |psi|^2 = 0.947
==== e(  19) =    12.96841 eV ==== 
     psi = 0.297*[#  16]+0.297*[#  19]+0.141*[#  18]+0.047*[#  15]+0.037*[#   7]
          +0.029*[#  10]+0.019*[#  23]+0.019*[#  27]+0.017*[#  22]+0.017*[#  26]
          +0.014*[#  24]+0.014*[#  28]+0.009*[#  21]+0.009*[#  25]+0.005*[#  17]
          +0.004*[#   8]+0.003*[#   6]+0.003*[#   9]+0.002*[#  20]+0.001*[#   5]
          
    |psi|^2 = 0.985
==== e(  20) =    13.74423 eV ==== 
     psi = 0.362*[#  18]+0.121*[#  15]+0.093*[#  16]+0.093*[#  19]+0.053*[#  23]
          +0.053*[#  27]+0.046*[#   7]+0.043*[#  10]+0.028*[#  21]+0.028*[#  25]
          +0.018*[#  20]+0.011*[#   8]+0.005*[#  24]+0.005*[#  28]+0.004*[#   5]
          +0.004*[#   6]+0.004*[#   9]
    |psi|^2 = 0.970
==== e(  21) =    13.96164 eV ==== 
     psi = 0.438*[#  15]+0.159*[#   5]+0.146*[#  18]+0.053*[#   8]+0.032*[#  22]
          +0.032*[#  24]+0.032*[#  26]+0.032*[#  28]+0.024*[#  16]+0.024*[#  19]
          +0.001*[#   6]+0.001*[#   9]
    |psi|^2 = 0.976
==== e(  22) =    15.08579 eV ==== 
     psi = 0.605*[#   7]+0.106*[#   8]+0.065*[#  17]+0.035*[#   5]+0.018*[#  20]
          +0.018*[#  10]+0.014*[#  18]+0.011*[#  21]+0.011*[#  25]+0.011*[#  24]
          +0.011*[#  28]+0.009*[#   6]+0.009*[#   9]+0.005*[#  15]+0.003*[#  16]
          +0.003*[#  19]
    |psi|^2 = 0.936
==== e(  23) =    15.76311 eV ==== 
     psi = 0.325*[#   6]+0.325*[#   9]+0.077*[#   7]+0.073*[#   8]+0.047*[#  20]
          +0.024*[#   5]+0.016*[#  17]+0.011*[#  22]+0.011*[#  26]+0.009*[#  24]
          +0.009*[#  28]+0.007*[#  21]+0.007*[#  23]+0.007*[#  25]+0.007*[#  27]
          +0.005*[#  16]+0.005*[#  19]+0.001*[#  18]
    |psi|^2 = 0.966
==== e(  24) =    15.83371 eV ==== 
     psi = 0.459*[#   6]+0.459*[#   9]+0.015*[#   5]+0.007*[#  24]+0.007*[#  28]
          +0.005*[#   8]+0.003*[#  16]+0.003*[#  19]
    |psi|^2 = 0.959
==== e(  25) =    16.34632 eV ==== 
     psi = 0.301*[#   8]+0.111*[#  20]+0.100*[#   5]+0.099*[#   6]+0.099*[#   9]
          +0.056*[#   7]+0.050*[#  23]+0.050*[#  27]+0.027*[#  18]+0.021*[#  21]
          +0.021*[#  25]+0.014*[#  17]+0.009*[#  15]+0.004*[#  10]+0.002*[#  22]
          +0.002*[#  24]+0.002*[#  26]+0.002*[#  28]
    |psi|^2 = 0.971
==== e(  26) =    17.54314 eV ==== 
     psi = 0.484*[#   5]+0.161*[#   8]+0.065*[#  22]+0.065*[#  24]+0.065*[#  26]
          +0.065*[#  28]+0.049*[#  15]+0.016*[#  18]+0.006*[#   6]+0.006*[#   9]
          
    |psi|^2 = 0.983

 k =  -0.1666666667 -0.1666666667 -0.1666666667
==== e(   1) =   -90.85045 eV ==== 
     psi = 0.991*[#  11]+0.002*[#  10]+0.002*[#  20]
    |psi|^2 = 0.999
==== e(   2) =   -88.45965 eV ==== 
     psi = 0.990*[#   1]+0.002*[#  20]+0.002*[#  10]
    |psi|^2 = 0.998
==== e(   3) =   -50.44307 eV ==== 
     psi = 0.330*[#  13]+0.330*[#  14]+0.003*[#   3]+0.003*[#   4]+0.002*[#  10]
          
    |psi|^2 = 0.668
==== e(   4) =   -50.13206 eV ==== 
     psi = 0.190*[#  14]+0.144*[#  13]
    |psi|^2 = 0.335
==== e(   5) =   -50.13206 eV ==== 
     psi = 0.522*[#  13]+0.476*[#  14]+0.001*[#  12]
    |psi|^2 = 1.000
==== e(   6) =   -47.56615 eV ==== 
     psi = 0.522*[#  12]+0.330*[#   3]+0.330*[#   4]+0.003*[#  13]+0.003*[#  14]
          +0.002*[#  20]
    |psi|^2 = 1.189
==== e(   7) =   -47.18949 eV ==== 
     psi = 0.360*[#   3]+0.330*[#   2]+0.032*[#   4]+0.003*[#  12]
    |psi|^2 = 0.725
==== e(   8) =   -47.18949 eV ==== 
     psi = 0.634*[#   4]+0.330*[#   2]+0.306*[#   3]+0.003*[#  12]
    |psi|^2 = 1.273
==== e(   9) =    -6.75204 eV ==== 
     psi = 0.346*[#  21]+0.346*[#  25]+0.161*[#  20]+0.140*[#  10]+0.002*[#  11]
          +0.002*[#   1]
    |psi|^2 = 0.999
==== e(  10) =    -6.20146 eV ==== 
     psi = 0.428*[#  21]+0.428*[#  25]+0.076*[#  10]+0.064*[#  20]
    |psi|^2 = 0.998
==== e(  11) =     6.72361 eV ==== 
     psi = 0.122*[#  20]+0.100*[#  23]+0.100*[#  24]+0.100*[#  27]+0.100*[#  28]
          +0.089*[#  10]+0.029*[#  16]+0.029*[#  17]+0.029*[#  19]+0.023*[#  21]
          +0.023*[#  25]+0.013*[#   6]+0.013*[#   7]+0.013*[#   9]+0.002*[#  11]
          +0.001*[#   1]
    |psi|^2 = 0.787
==== e(  12) =     9.07405 eV ==== 
     psi = 0.111*[#  23]+0.111*[#  24]+0.111*[#  27]+0.111*[#  28]+0.092*[#  10]
          +0.062*[#  20]+0.042*[#  21]+0.042*[#  25]+0.016*[#  16]+0.016*[#  17]
          +0.016*[#  19]+0.011*[#   6]+0.011*[#   7]+0.011*[#   9]+0.002*[#   1]
          +0.001*[#  11]
    |psi|^2 = 0.763
==== e(  13) =     9.29305 eV ==== 
     psi = 0.253*[#  18]+0.194*[#  24]+0.194*[#  28]+0.094*[#  23]+0.094*[#  27]
          +0.047*[#   8]+0.025*[#  15]+0.024*[#  16]+0.018*[#  22]+0.018*[#  26]
          +0.012*[#  17]+0.005*[#   5]+0.004*[#   6]+0.002*[#  19]+0.002*[#   7]
          
    |psi|^2 = 0.985
==== e(  14) =     9.29305 eV ==== 
     psi = 0.253*[#  15]+0.111*[#  23]+0.111*[#  27]+0.094*[#  22]+0.094*[#  26]
          +0.047*[#   5]+0.025*[#  18]+0.023*[#  19]+0.014*[#  17]+0.010*[#  24]
          +0.010*[#  28]+0.005*[#   8]+0.003*[#   9]+0.002*[#   7]+0.001*[#  16]
          
    |psi|^2 = 0.801
==== e(  15) =    10.59231 eV ==== 
     psi = 0.260*[#  24]+0.260*[#  28]+0.186*[#  22]+0.186*[#  26]+0.117*[#  23]
          +0.117*[#  27]+0.087*[#   8]+0.033*[#  18]+0.014*[#   6]+0.012*[#  16]
          +0.010*[#   5]+0.006*[#   7]+0.005*[#  17]+0.004*[#  15]+0.001*[#   9]
          +0.001*[#  19]
    |psi|^2 = 1.299
==== e(  16) =    10.59231 eV ==== 
     psi = 0.153*[#  23]+0.153*[#  27]+0.111*[#  22]+0.111*[#  26]+0.087*[#   5]
          +0.033*[#  15]+0.013*[#   9]+0.011*[#  19]+0.010*[#   8]+0.010*[#  24]
          +0.010*[#  28]+0.008*[#   7]+0.007*[#  17]+0.004*[#  18]
    |psi|^2 = 0.721
==== e(  17) =    12.77704 eV ==== 
     psi = 0.545*[#  19]+0.214*[#  16]+0.108*[#  15]+0.076*[#  17]+0.010*[#   9]
          +0.005*[#   5]+0.004*[#   6]+0.002*[#  18]+0.002*[#  22]+0.002*[#  26]
          +0.001*[#   7]
    |psi|^2 = 0.969
==== e(  18) =    12.77704 eV ==== 
     psi = 0.480*[#  17]+0.343*[#  16]+0.108*[#  18]+0.012*[#  19]+0.008*[#   7]
          +0.006*[#   6]+0.005*[#   8]+0.002*[#  15]+0.001*[#  23]+0.001*[#  27]
          
    |psi|^2 = 0.969
==== e(  19) =    12.83057 eV ==== 
     psi = 0.272*[#  16]+0.272*[#  17]+0.272*[#  19]+0.060*[#  20]+0.012*[#  21]
          +0.012*[#  25]+0.011*[#  23]+0.011*[#  24]+0.011*[#  27]+0.011*[#  28]
          
    |psi|^2 = 0.945
==== e(  20) =    14.62145 eV ==== 
     psi = 0.323*[#  18]+0.179*[#  15]+0.103*[#  24]+0.103*[#  28]+0.062*[#   8]
          +0.037*[#  16]+0.034*[#   5]+0.016*[#  23]+0.016*[#  27]+0.013*[#  19]
          +0.006*[#  17]+0.004*[#   6]+0.001*[#   9]+0.001*[#  22]+0.001*[#  26]
          
    |psi|^2 = 0.903
==== e(  21) =    14.62145 eV ==== 
     psi = 0.323*[#  15]+0.179*[#  18]+0.088*[#  23]+0.088*[#  27]+0.067*[#  22]
          +0.067*[#  26]+0.062*[#   5]+0.034*[#   8]+0.032*[#  17]+0.024*[#  19]
          +0.003*[#   7]+0.003*[#   9]+0.001*[#  24]+0.001*[#  28]
    |psi|^2 = 0.975
==== e(  22) =    15.03160 eV ==== 
     psi = 0.197*[#   6]+0.197*[#   7]+0.197*[#   9]+0.158*[#  10]+0.088*[#  22]
          +0.088*[#  26]+0.048*[#  20]+0.042*[#  21]+0.042*[#  25]+0.009*[#  23]
          +0.009*[#  24]+0.009*[#  27]+0.009*[#  28]
    |psi|^2 = 1.097
==== e(  23) =    15.68272 eV ==== 
     psi = 0.557*[#   6]+0.224*[#   7]+0.075*[#   9]+0.064*[#   8]+0.012*[#  16]
          +0.010*[#   5]+0.009*[#  22]+0.009*[#  26]+0.005*[#  17]+0.002*[#  18]
          +0.002*[#  19]
    |psi|^2 = 0.971
==== e(  24) =    15.68272 eV ==== 
     psi = 0.496*[#   9]+0.347*[#   7]+0.064*[#   5]+0.013*[#   6]+0.011*[#  19]
          +0.010*[#   8]+0.009*[#  22]+0.009*[#  26]+0.007*[#  17]+0.002*[#  15]
          
    |psi|^2 = 0.969
==== e(  25) =    15.82618 eV ==== 
     psi = 0.223*[#  20]+0.088*[#  10]+0.084*[#   6]+0.084*[#   7]+0.084*[#   9]
          +0.061*[#  21]+0.061*[#  25]+0.046*[#  22]+0.046*[#  23]+0.046*[#  24]
          +0.046*[#  26]+0.046*[#  27]+0.046*[#  28]+0.004*[#  16]+0.004*[#  17]
          +0.004*[#  19]
    |psi|^2 = 0.973
==== e(  26) =    17.54289 eV ==== 
     psi = 0.359*[#   8]+0.280*[#   5]+0.074*[#  23]+0.074*[#  27]+0.034*[#  22]
          +0.034*[#  26]+0.030*[#   7]+0.026*[#  18]+0.020*[#  15]+0.014*[#   9]
          +0.008*[#  24]+0.008*[#  28]+0.003*[#   6]+0.002*[#  17]
    |psi|^2 = 0.967

Lowdin Charges: 

     Atom #   1: total charge =  14.1267, s =  2.6292, p =  5.3016, d =  6.1960, 
                 spin up      =   8.7038, s =  1.3097, 
                 spin up      =   8.7038, p =  2.6401, pz=  0.6419, px=  0.9991, py=  0.9991, 
                 spin up      =   8.7038, d =  4.7540, dz2=  0.9295, dxz=  0.9650, dyz=  0.9650, dx2-y2=  0.9295, dxy=  0.9650, 
                 spin down    =   5.4229, s =  1.3194, 
                 spin down    =   5.4229, p =  2.6615, pz=  0.6632, px=  0.9991, py=  0.9991, 
                 spin down    =   5.4229, d =  1.4419, dz2=  0.2229, dxz=  0.3320, dyz=  0.3320, dx2-y2=  0.2229, dxy=  0.3320, 
                 polarization =   3.2810, s = -0.0097, p = -0.0214, d =  3.3121, 
     Atom #   2: total charge =  14.1383, s =  2.6292, p =  5.3131, d =  6.1960, 
                 spin up      =   5.4226, s =  1.3194, 
                 spin up      =   5.4226, p =  2.6612, pz=  0.6630, px=  0.9991, py=  0.9991, 
                 spin up      =   5.4226, d =  1.4419, dz2=  0.2229, dxz=  0.3320, dyz=  0.3320, dx2-y2=  0.2229, dxy=  0.3320, 
                 spin down    =   8.7157, s =  1.3097, 
                 spin down    =   8.7157, p =  2.6519, pz=  0.6537, px=  0.9991, py=  0.9991, 
                 spin down    =   8.7157, d =  4.7540, dz2=  0.9295, dxz=  0.9650, dyz=  0.9650, dx2-y2=  0.9295, dxy=  0.9650, 
                 polarization =  -3.2930, s =  0.0097, p =  0.0094, d = -3.3121, 
     Atom #   3: total charge =   6.3628, s =  1.8999, p =  4.4628, d =  0.0000, 
                 spin up      =   3.1816, s =  0.9500, 
                 spin up      =   3.1816, p =  2.2316, pz=  0.5821, px=  0.8247, py=  0.8247, 
                 spin up      =   3.1816, d =  0.0000, dz2=  0.0000, dxz=  0.0000, dyz=  0.0000, dx2-y2=  0.0000, dxy=  0.0000, 
                 spin down    =   3.1812, s =  0.9500, 
                 spin down    =   3.1812, p =  2.2312, pz=  0.5817, px=  0.8247, py=  0.8247, 
                 spin down    =   3.1812, d =  0.0000, dz2=  0.0000, dxz=  0.0000, dyz=  0.0000, dx2-y2=  0.0000, dxy=  0.0000, 
                 polarization =   0.0003, s = -0.0000, p =  0.0003, d =  0.0000, 
     Atom #   4: total charge =   6.3627, s =  1.8999, p =  4.4628, d =  0.0000, 
                 spin up      =   3.1815, s =  0.9500, 
                 spin up      =   3.1815, p =  2.2316, pz=  0.5821, px=  0.8247, py=  0.8247, 
                 spin up      =   3.1815, d =  0.0000, dz2=  0.0000, dxz=  0.0000, dyz=  0.0000, dx2-y2=  0.0000, dxy=  0.0000, 
                 spin down    =   3.1812, s =  0.9500, 
                 spin down    =   3.1812, p =  2.2312, pz=  0.5817, px=  0.8247, py=  0.8247, 
                 spin down    =   3.1812, d =  0.0000, dz2=  0.0000, dxz=  0.0000, dyz=  0.0000, dx2-y2=  0.0000, dxy=  0.0000, 
                 polarization =   0.0004, s =  0.0000, p =  0.0004, d =  0.0000, 
     Spilling Parameter:   0.0684

     PROJWFC      :      0.78s CPU      0.82s WALL


   This run was terminated on:  14:49:23  19Sep2024            

=------------------------------------------------------------------------------=
   JOB DONE.
=------------------------------------------------------------------------------=
