
     Program PWSCF v.7.3.1 starts on 20Aug2024 at 12:20:24 

     This program is part of the open-source Quantum ESPRESSO suite
     for quantum simulation of materials; please cite
         "P. Giannozzi et al., J. Phys.:Condens. Matter 21 395502 (2009);
         "P. Giannozzi et al., J. Phys.:Condens. Matter 29 465901 (2017);
         "P. Giannozzi et al., J. Chem. Phys. 152 154105 (2020);
          URL http://www.quantum-espresso.org", 
     in publications or presentations arising from this work. More details at
     http://www.quantum-espresso.org/quote

     Parallel version (MPI), running on     1 processors

     MPI processes distributed on     1 nodes
     2794 MiB available memory on the printing compute node when the environment starts

     Reading input from GaAs.pwi

     Current dimensions of program PWSCF are:
     Max number of different atomic species (ntypx) = 10
     Max number of k-points (npk) =  40000
     Max angular momentum in pseudopotentials (lmaxx) =  4
     Message from routine volume:
     axis vectors are left-handed

     Subspace diagonalization in iterative solution of the eigenvalue problem:
     a serial algorithm will be used


     G-vector sticks info
     --------------------
     sticks:   dense  smooth     PW     G-vecs:    dense   smooth      PW
     Sum        2263    1147    313                71537    25509    3839

     Using Slab Decomposition



     bravais-lattice index     =            0
     lattice parameter (alat)  =       7.6834  a.u.
     unit-cell volume          =     320.7304 (a.u.)^3
     number of atoms/cell      =            2
     number of atomic types    =            2
     number of electrons       =        28.00
     number of Kohn-Sham states=           14
     kinetic-energy cutoff     =      70.0000  Ry
     charge density cutoff     =     560.0000  Ry
     scf convergence threshold =      4.0E-10
     mixing beta               =       0.4000
     number of iterations used =            8  plain     mixing
     Exchange-correlation= SLA  PW   NOGX NOGC
                           (   1   4   0   0   0   0   0)

     celldm(1)=   7.683369  celldm(2)=   0.000000  celldm(3)=   0.000000
     celldm(4)=   0.000000  celldm(5)=   0.000000  celldm(6)=   0.000000

     crystal axes: (cart. coord. in units of alat)
               a(1) = (   0.707107   0.707107   0.000000 )  
               a(2) = (   0.707107   0.000000   0.707107 )  
               a(3) = (   0.000000   0.707107   0.707107 )  

     reciprocal axes: (cart. coord. in units 2 pi/alat)
               b(1) = (  0.707107  0.707107 -0.707107 )  
               b(2) = (  0.707107 -0.707107  0.707107 )  
               b(3) = ( -0.707107  0.707107  0.707107 )  


     PseudoPot. # 1 for As read from file:
     ./pseudo/As.upf
     MD5 check sum: 33c531620a5edaf59d417d4ab58437b1
     Pseudo is Norm-conserving + core correction, Zval = 15.0
     Generated using ONCVPSP code by D. R. Hamann
     Using radial grid of 1326 points,  6 beta functions with: 
                l(1) =   0
                l(2) =   0
                l(3) =   1
                l(4) =   1
                l(5) =   2
                l(6) =   2

     PseudoPot. # 2 for Ga read from file:
     ./pseudo/Ga.upf
     MD5 check sum: 1297264db1911d3fa8c63c42f023f390
     Pseudo is Norm-conserving + core correction, Zval = 13.0
     Generated using ONCVPSP code by D. R. Hamann
     Using radial grid of 1858 points,  6 beta functions with: 
                l(1) =   0
                l(2) =   0
                l(3) =   1
                l(4) =   1
                l(5) =   2
                l(6) =   2

     atomic species   valence    mass     pseudopotential
     As               15.00    74.92160     As( 1.00)
     Ga               13.00    69.72300     Ga( 1.00)

     No symmetry found


                                    s                        frac. trans.

      isym =  1     identity                                     

 cryst.   s( 1) = (     1          0          0      )
                  (     0          1          0      )
                  (     0          0          1      )

 cart.    s( 1) = (  1.0000000  0.0000000  0.0000000 )
                  (  0.0000000  1.0000000  0.0000000 )
                  (  0.0000000  0.0000000  1.0000000 )


   Cartesian axes

     site n.     atom                  positions (alat units)
         1        As     tau(   1) = (   0.3535534   0.3535534   0.3535534  )
         2        Ga     tau(   2) = (   0.0000000   0.0000000   0.0000000  )

   Crystallographic axes

     site n.     atom                  positions (cryst. coord.)
         1        As     tau(   1) = (  0.2500000  0.2500000  0.2500000  )
         2        Ga     tau(   2) = (  0.0000000  0.0000000  0.0000000  )

     number of k points=    27
                       cart. coord. in units 2pi/alat
        k(    1) = (   0.0000000   0.0000000   0.0000000), wk =   0.0740741
        k(    2) = (  -0.2357023   0.2357023   0.2357023), wk =   0.0740741
        k(    3) = (   0.2357023  -0.2357023  -0.2357023), wk =   0.0740741
        k(    4) = (   0.2357023  -0.2357023   0.2357023), wk =   0.0740741
        k(    5) = (   0.0000000   0.0000000   0.4714045), wk =   0.0740741
        k(    6) = (   0.4714045  -0.4714045  -0.0000000), wk =   0.0740741
        k(    7) = (  -0.2357023   0.2357023  -0.2357023), wk =   0.0740741
        k(    8) = (  -0.4714045   0.4714045  -0.0000000), wk =   0.0740741
        k(    9) = (   0.0000000   0.0000000  -0.4714045), wk =   0.0740741
        k(   10) = (   0.2357023   0.2357023  -0.2357023), wk =   0.0740741
        k(   11) = (   0.0000000   0.4714045   0.0000000), wk =   0.0740741
        k(   12) = (   0.4714045  -0.0000000  -0.4714045), wk =   0.0740741
        k(   13) = (   0.4714045   0.0000000   0.0000000), wk =   0.0740741
        k(   14) = (   0.2357023   0.2357023   0.2357023), wk =   0.0740741
        k(   15) = (   0.7071068  -0.2357023  -0.2357023), wk =   0.0740741
        k(   16) = (  -0.0000000   0.4714045  -0.4714045), wk =   0.0740741
        k(   17) = (  -0.2357023   0.7071068  -0.2357023), wk =   0.0740741
        k(   18) = (   0.2357023   0.2357023  -0.7071068), wk =   0.0740741
        k(   19) = (  -0.2357023  -0.2357023   0.2357023), wk =   0.0740741
        k(   20) = (  -0.4714045  -0.0000000   0.4714045), wk =   0.0740741
        k(   21) = (   0.0000000  -0.4714045   0.0000000), wk =   0.0740741
        k(   22) = (  -0.0000000  -0.4714045   0.4714045), wk =   0.0740741
        k(   23) = (  -0.2357023  -0.2357023   0.7071068), wk =   0.0740741
        k(   24) = (   0.2357023  -0.7071068   0.2357023), wk =   0.0740741
        k(   25) = (  -0.4714045   0.0000000   0.0000000), wk =   0.0740741
        k(   26) = (  -0.7071068   0.2357023   0.2357023), wk =   0.0740741
        k(   27) = (  -0.2357023  -0.2357023  -0.2357023), wk =   0.0740741

                       cryst. coord.
        k(    1) = (   0.0000000   0.0000000   0.0000000), wk =   0.0740741
        k(    2) = (   0.0000000   0.0000000   0.3333333), wk =   0.0740741
        k(    3) = (   0.0000000   0.0000000  -0.3333333), wk =   0.0740741
        k(    4) = (   0.0000000   0.3333333   0.0000000), wk =   0.0740741
        k(    5) = (   0.0000000   0.3333333   0.3333333), wk =   0.0740741
        k(    6) = (   0.0000000   0.3333333  -0.3333333), wk =   0.0740741
        k(    7) = (   0.0000000  -0.3333333   0.0000000), wk =   0.0740741
        k(    8) = (   0.0000000  -0.3333333   0.3333333), wk =   0.0740741
        k(    9) = (   0.0000000  -0.3333333  -0.3333333), wk =   0.0740741
        k(   10) = (   0.3333333   0.0000000   0.0000000), wk =   0.0740741
        k(   11) = (   0.3333333   0.0000000   0.3333333), wk =   0.0740741
        k(   12) = (   0.3333333   0.0000000  -0.3333333), wk =   0.0740741
        k(   13) = (   0.3333333   0.3333333   0.0000000), wk =   0.0740741
        k(   14) = (   0.3333333   0.3333333   0.3333333), wk =   0.0740741
        k(   15) = (   0.3333333   0.3333333  -0.3333333), wk =   0.0740741
        k(   16) = (   0.3333333  -0.3333333   0.0000000), wk =   0.0740741
        k(   17) = (   0.3333333  -0.3333333   0.3333333), wk =   0.0740741
        k(   18) = (   0.3333333  -0.3333333  -0.3333333), wk =   0.0740741
        k(   19) = (  -0.3333333   0.0000000   0.0000000), wk =   0.0740741
        k(   20) = (  -0.3333333   0.0000000   0.3333333), wk =   0.0740741
        k(   21) = (  -0.3333333   0.0000000  -0.3333333), wk =   0.0740741
        k(   22) = (  -0.3333333   0.3333333   0.0000000), wk =   0.0740741
        k(   23) = (  -0.3333333   0.3333333   0.3333333), wk =   0.0740741
        k(   24) = (  -0.3333333   0.3333333  -0.3333333), wk =   0.0740741
        k(   25) = (  -0.3333333  -0.3333333   0.0000000), wk =   0.0740741
        k(   26) = (  -0.3333333  -0.3333333   0.3333333), wk =   0.0740741
        k(   27) = (  -0.3333333  -0.3333333  -0.3333333), wk =   0.0740741

     Dense  grid:    71537 G-vectors     FFT dimensions: (  60,  60,  60)

     Smooth grid:    25509 G-vectors     FFT dimensions: (  45,  45,  45)

     Dynamical RAM for                 wfc:       0.68 MB

     Dynamical RAM for     wfc (w. buffer):      18.97 MB

     Dynamical RAM for           str. fact:       2.18 MB

     Dynamical RAM for           local pot:       0.00 MB

     Dynamical RAM for          nlocal pot:       1.74 MB

     Dynamical RAM for                qrad:       3.80 MB

     Dynamical RAM for          rho,v,vnew:       8.22 MB

     Dynamical RAM for               rhoin:       2.74 MB

     Dynamical RAM for            rho*nmix:      17.47 MB

     Dynamical RAM for           G-vectors:       4.29 MB

     Dynamical RAM for          h,s,v(r/c):       0.04 MB

     Dynamical RAM for          <psi|beta>:       0.01 MB

     Dynamical RAM for                 psi:       1.36 MB

     Dynamical RAM for                hpsi:       1.36 MB

     Dynamical RAM for      wfcinit/wfcrot:       1.75 MB

     Estimated static dynamical RAM per process >      53.46 MB

     Estimated max dynamical RAM per process >      73.68 MB

     Initial potential from superposition of free atoms

     starting charge      27.9977, renormalised to      28.0000
     Starting wfcs are   18 randomized atomic wfcs

     total cpu time spent up to now is        1.4 secs

     Self-consistent Calculation

     iteration #  1     ecut=    70.00 Ry     beta= 0.40
     Davidson diagonalization with overlap

---- Real-time Memory Report at c_bands before calling an iterative solver
            73 MiB given to the printing process from OS
             0 MiB allocation reported by mallinfo(arena+hblkhd)
          2743 MiB available memory on the node where the printing process lives
------------------
     ethr =  1.00E-02,  avg # of iterations =  2.0

     Threshold (ethr) on eigenvalues was too large:
     Diagonalizing with lowered threshold

     Davidson diagonalization with overlap

---- Real-time Memory Report at c_bands before calling an iterative solver
            77 MiB given to the printing process from OS
             0 MiB allocation reported by mallinfo(arena+hblkhd)
          2740 MiB available memory on the node where the printing process lives
------------------
     ethr =  2.08E-04,  avg # of iterations =  2.7

     total cpu time spent up to now is        4.5 secs

     total energy              =    -364.66291148 Ry
     estimated scf accuracy    <       0.06304236 Ry

     iteration #  2     ecut=    70.00 Ry     beta= 0.40
     Davidson diagonalization with overlap

---- Real-time Memory Report at c_bands before calling an iterative solver
            84 MiB given to the printing process from OS
             0 MiB allocation reported by mallinfo(arena+hblkhd)
          2715 MiB available memory on the node where the printing process lives
------------------
     ethr =  2.25E-04,  avg # of iterations =  2.0

     total cpu time spent up to now is        6.0 secs

     total energy              =    -364.66624838 Ry
     estimated scf accuracy    <       0.01047694 Ry

     iteration #  3     ecut=    70.00 Ry     beta= 0.40
     Davidson diagonalization with overlap

---- Real-time Memory Report at c_bands before calling an iterative solver
            85 MiB given to the printing process from OS
             0 MiB allocation reported by mallinfo(arena+hblkhd)
          2714 MiB available memory on the node where the printing process lives
------------------
     ethr =  3.74E-05,  avg # of iterations =  2.9

     total cpu time spent up to now is        7.5 secs

     total energy              =    -364.66677743 Ry
     estimated scf accuracy    <       0.00174681 Ry

     iteration #  4     ecut=    70.00 Ry     beta= 0.40
     Davidson diagonalization with overlap

---- Real-time Memory Report at c_bands before calling an iterative solver
            86 MiB given to the printing process from OS
             0 MiB allocation reported by mallinfo(arena+hblkhd)
          2713 MiB available memory on the node where the printing process lives
------------------
     ethr =  6.24E-06,  avg # of iterations =  2.6

     total cpu time spent up to now is        9.0 secs

     total energy              =    -364.66766627 Ry
     estimated scf accuracy    <       0.00022366 Ry

     iteration #  5     ecut=    70.00 Ry     beta= 0.40
     Davidson diagonalization with overlap

---- Real-time Memory Report at c_bands before calling an iterative solver
            87 MiB given to the printing process from OS
             0 MiB allocation reported by mallinfo(arena+hblkhd)
          2712 MiB available memory on the node where the printing process lives
------------------
     ethr =  7.99E-07,  avg # of iterations =  1.9

     total cpu time spent up to now is       10.3 secs

     total energy              =    -364.66761015 Ry
     estimated scf accuracy    <       0.00013515 Ry

     iteration #  6     ecut=    70.00 Ry     beta= 0.40
     Davidson diagonalization with overlap

---- Real-time Memory Report at c_bands before calling an iterative solver
            88 MiB given to the printing process from OS
             0 MiB allocation reported by mallinfo(arena+hblkhd)
          2705 MiB available memory on the node where the printing process lives
------------------
     c_bands:  1 eigenvalues not converged
     ethr =  4.83E-07,  avg # of iterations =  2.9

     total cpu time spent up to now is       12.0 secs

     total energy              =    -364.66769827 Ry
     estimated scf accuracy    <       0.00012204 Ry

     iteration #  7     ecut=    70.00 Ry     beta= 0.40
     Davidson diagonalization with overlap

---- Real-time Memory Report at c_bands before calling an iterative solver
            88 MiB given to the printing process from OS
             0 MiB allocation reported by mallinfo(arena+hblkhd)
          2704 MiB available memory on the node where the printing process lives
------------------
     ethr =  4.36E-07,  avg # of iterations =  1.5

     total cpu time spent up to now is       13.2 secs

     total energy              =    -364.66781437 Ry
     estimated scf accuracy    <       0.00047007 Ry

     iteration #  8     ecut=    70.00 Ry     beta= 0.40
     Davidson diagonalization with overlap

---- Real-time Memory Report at c_bands before calling an iterative solver
            89 MiB given to the printing process from OS
             0 MiB allocation reported by mallinfo(arena+hblkhd)
          2703 MiB available memory on the node where the printing process lives
------------------
     ethr =  4.36E-07,  avg # of iterations =  1.0

     total cpu time spent up to now is       14.5 secs

     total energy              =    -364.66794895 Ry
     estimated scf accuracy    <       0.00048867 Ry

     iteration #  9     ecut=    70.00 Ry     beta= 0.40
     Davidson diagonalization with overlap

---- Real-time Memory Report at c_bands before calling an iterative solver
            90 MiB given to the printing process from OS
             0 MiB allocation reported by mallinfo(arena+hblkhd)
          2700 MiB available memory on the node where the printing process lives
------------------
     ethr =  4.36E-07,  avg # of iterations =  2.4

     total cpu time spent up to now is       15.9 secs

     total energy              =    -364.66796047 Ry
     estimated scf accuracy    <       0.00083232 Ry

     iteration # 10     ecut=    70.00 Ry     beta= 0.40
     Davidson diagonalization with overlap

---- Real-time Memory Report at c_bands before calling an iterative solver
            91 MiB given to the printing process from OS
             0 MiB allocation reported by mallinfo(arena+hblkhd)
          2697 MiB available memory on the node where the printing process lives
------------------
     ethr =  4.36E-07,  avg # of iterations =  1.0

     total cpu time spent up to now is       17.2 secs

     total energy              =    -364.66792773 Ry
     estimated scf accuracy    <       0.00082199 Ry

     iteration # 11     ecut=    70.00 Ry     beta= 0.40
     Davidson diagonalization with overlap

---- Real-time Memory Report at c_bands before calling an iterative solver
            91 MiB given to the printing process from OS
             0 MiB allocation reported by mallinfo(arena+hblkhd)
          2697 MiB available memory on the node where the printing process lives
------------------
     ethr =  4.36E-07,  avg # of iterations =  1.0

     total cpu time spent up to now is       18.5 secs

     total energy              =    -364.66793776 Ry
     estimated scf accuracy    <       0.00075538 Ry

     iteration # 12     ecut=    70.00 Ry     beta= 0.40
     Davidson diagonalization with overlap

---- Real-time Memory Report at c_bands before calling an iterative solver
            91 MiB given to the printing process from OS
             0 MiB allocation reported by mallinfo(arena+hblkhd)
          2697 MiB available memory on the node where the printing process lives
------------------
     ethr =  4.36E-07,  avg # of iterations =  1.7

     total cpu time spent up to now is       19.8 secs

     total energy              =    -364.66798017 Ry
     estimated scf accuracy    <       0.00083653 Ry

     iteration # 13     ecut=    70.00 Ry     beta= 0.40
     Davidson diagonalization with overlap

---- Real-time Memory Report at c_bands before calling an iterative solver
            91 MiB given to the printing process from OS
             0 MiB allocation reported by mallinfo(arena+hblkhd)
          2690 MiB available memory on the node where the printing process lives
------------------
     ethr =  4.36E-07,  avg # of iterations =  1.0

     total cpu time spent up to now is       21.1 secs

     total energy              =    -364.66804701 Ry
     estimated scf accuracy    <       0.00084549 Ry

     iteration # 14     ecut=    70.00 Ry     beta= 0.40
     Davidson diagonalization with overlap

---- Real-time Memory Report at c_bands before calling an iterative solver
            91 MiB given to the printing process from OS
             0 MiB allocation reported by mallinfo(arena+hblkhd)
          2689 MiB available memory on the node where the printing process lives
------------------
     ethr =  4.36E-07,  avg # of iterations =  2.4

     total cpu time spent up to now is       22.5 secs

     total energy              =    -364.66803165 Ry
     estimated scf accuracy    <       0.00102404 Ry

     iteration # 15     ecut=    70.00 Ry     beta= 0.40
     Davidson diagonalization with overlap

---- Real-time Memory Report at c_bands before calling an iterative solver
            91 MiB given to the printing process from OS
             0 MiB allocation reported by mallinfo(arena+hblkhd)
          2689 MiB available memory on the node where the printing process lives
------------------
     ethr =  4.36E-07,  avg # of iterations =  1.0

     total cpu time spent up to now is       23.7 secs

     total energy              =    -364.66776593 Ry
     estimated scf accuracy    <       0.00097099 Ry

     iteration # 16     ecut=    70.00 Ry     beta= 0.40
     Davidson diagonalization with overlap

---- Real-time Memory Report at c_bands before calling an iterative solver
            91 MiB given to the printing process from OS
             0 MiB allocation reported by mallinfo(arena+hblkhd)
          2689 MiB available memory on the node where the printing process lives
------------------
     ethr =  4.36E-07,  avg # of iterations =  3.9

     total cpu time spent up to now is       25.7 secs

     total energy              =    -364.66809058 Ry
     estimated scf accuracy    <       0.00106931 Ry

     iteration # 17     ecut=    70.00 Ry     beta= 0.40
     Davidson diagonalization with overlap

---- Real-time Memory Report at c_bands before calling an iterative solver
            91 MiB given to the printing process from OS
             0 MiB allocation reported by mallinfo(arena+hblkhd)
          2695 MiB available memory on the node where the printing process lives
------------------
     ethr =  4.36E-07,  avg # of iterations =  1.1

     total cpu time spent up to now is       27.0 secs

     total energy              =    -364.66825004 Ry
     estimated scf accuracy    <       0.00110028 Ry

     iteration # 18     ecut=    70.00 Ry     beta= 0.40
     Davidson diagonalization with overlap

---- Real-time Memory Report at c_bands before calling an iterative solver
            91 MiB given to the printing process from OS
             0 MiB allocation reported by mallinfo(arena+hblkhd)
          2695 MiB available memory on the node where the printing process lives
------------------
     ethr =  4.36E-07,  avg # of iterations =  2.3

     total cpu time spent up to now is       28.3 secs

     total energy              =    -364.66807567 Ry
     estimated scf accuracy    <       0.00147654 Ry

     iteration # 19     ecut=    70.00 Ry     beta= 0.40
     Davidson diagonalization with overlap

---- Real-time Memory Report at c_bands before calling an iterative solver
            91 MiB given to the printing process from OS
             0 MiB allocation reported by mallinfo(arena+hblkhd)
          2695 MiB available memory on the node where the printing process lives
------------------
     ethr =  4.36E-07,  avg # of iterations =  2.0

     total cpu time spent up to now is       29.7 secs

     total energy              =    -364.66812136 Ry
     estimated scf accuracy    <       0.00109523 Ry

     iteration # 20     ecut=    70.00 Ry     beta= 0.40
     Davidson diagonalization with overlap

---- Real-time Memory Report at c_bands before calling an iterative solver
            91 MiB given to the printing process from OS
             0 MiB allocation reported by mallinfo(arena+hblkhd)
          2695 MiB available memory on the node where the printing process lives
------------------
     ethr =  4.36E-07,  avg # of iterations =  1.0

     total cpu time spent up to now is       31.0 secs

     total energy              =    -364.66795346 Ry
     estimated scf accuracy    <       0.00117905 Ry

     iteration # 21     ecut=    70.00 Ry     beta= 0.40
     Davidson diagonalization with overlap

---- Real-time Memory Report at c_bands before calling an iterative solver
            91 MiB given to the printing process from OS
             0 MiB allocation reported by mallinfo(arena+hblkhd)
          2695 MiB available memory on the node where the printing process lives
------------------
     ethr =  4.36E-07,  avg # of iterations =  2.4

     total cpu time spent up to now is       32.4 secs

     total energy              =    -364.66787023 Ry
     estimated scf accuracy    <       0.00085252 Ry

     iteration # 22     ecut=    70.00 Ry     beta= 0.40
     Davidson diagonalization with overlap

---- Real-time Memory Report at c_bands before calling an iterative solver
            91 MiB given to the printing process from OS
             0 MiB allocation reported by mallinfo(arena+hblkhd)
          2695 MiB available memory on the node where the printing process lives
------------------
     ethr =  4.36E-07,  avg # of iterations =  2.4

     total cpu time spent up to now is       33.9 secs

     total energy              =    -364.66770232 Ry
     estimated scf accuracy    <       0.00067394 Ry

     iteration # 23     ecut=    70.00 Ry     beta= 0.40
     Davidson diagonalization with overlap

---- Real-time Memory Report at c_bands before calling an iterative solver
            91 MiB given to the printing process from OS
             0 MiB allocation reported by mallinfo(arena+hblkhd)
          2695 MiB available memory on the node where the printing process lives
------------------
     ethr =  4.36E-07,  avg # of iterations =  4.4

     total cpu time spent up to now is       35.8 secs

     total energy              =    -364.66758448 Ry
     estimated scf accuracy    <       0.00086255 Ry

     iteration # 24     ecut=    70.00 Ry     beta= 0.40
     Davidson diagonalization with overlap

---- Real-time Memory Report at c_bands before calling an iterative solver
            91 MiB given to the printing process from OS
             0 MiB allocation reported by mallinfo(arena+hblkhd)
          2695 MiB available memory on the node where the printing process lives
------------------
     c_bands:  2 eigenvalues not converged
     ethr =  4.36E-07,  avg # of iterations =  4.5

     total cpu time spent up to now is       37.9 secs

     total energy              =    -364.66780235 Ry
     estimated scf accuracy    <       0.00065001 Ry

     iteration # 25     ecut=    70.00 Ry     beta= 0.40
     Davidson diagonalization with overlap

---- Real-time Memory Report at c_bands before calling an iterative solver
            91 MiB given to the printing process from OS
             0 MiB allocation reported by mallinfo(arena+hblkhd)
          2694 MiB available memory on the node where the printing process lives
------------------
     ethr =  4.36E-07,  avg # of iterations =  2.4

     total cpu time spent up to now is       39.3 secs

     total energy              =    -364.66776258 Ry
     estimated scf accuracy    <       0.00053401 Ry

     iteration # 26     ecut=    70.00 Ry     beta= 0.40
     Davidson diagonalization with overlap

---- Real-time Memory Report at c_bands before calling an iterative solver
            91 MiB given to the printing process from OS
             0 MiB allocation reported by mallinfo(arena+hblkhd)
          2694 MiB available memory on the node where the printing process lives
------------------
     ethr =  4.36E-07,  avg # of iterations =  2.4

     total cpu time spent up to now is       40.9 secs

     total energy              =    -364.66788866 Ry
     estimated scf accuracy    <       0.00048674 Ry

     iteration # 27     ecut=    70.00 Ry     beta= 0.40
     Davidson diagonalization with overlap

---- Real-time Memory Report at c_bands before calling an iterative solver
            91 MiB given to the printing process from OS
             0 MiB allocation reported by mallinfo(arena+hblkhd)
          2694 MiB available memory on the node where the printing process lives
------------------
     c_bands:  2 eigenvalues not converged
     ethr =  4.36E-07,  avg # of iterations =  2.7

     total cpu time spent up to now is       42.4 secs

     total energy              =    -364.66792409 Ry
     estimated scf accuracy    <       0.00089429 Ry

     iteration # 28     ecut=    70.00 Ry     beta= 0.40
     Davidson diagonalization with overlap

---- Real-time Memory Report at c_bands before calling an iterative solver
            91 MiB given to the printing process from OS
             0 MiB allocation reported by mallinfo(arena+hblkhd)
          2694 MiB available memory on the node where the printing process lives
------------------
     c_bands:  2 eigenvalues not converged
     ethr =  4.36E-07,  avg # of iterations =  3.6

     total cpu time spent up to now is       44.4 secs

     total energy              =    -364.66848983 Ry
     estimated scf accuracy    <       0.00143843 Ry

     iteration # 29     ecut=    70.00 Ry     beta= 0.40
     Davidson diagonalization with overlap

---- Real-time Memory Report at c_bands before calling an iterative solver
            91 MiB given to the printing process from OS
             0 MiB allocation reported by mallinfo(arena+hblkhd)
          2693 MiB available memory on the node where the printing process lives
------------------
     ethr =  4.36E-07,  avg # of iterations =  2.8

     total cpu time spent up to now is       45.9 secs

     total energy              =    -364.66814249 Ry
     estimated scf accuracy    <       0.00203304 Ry

     iteration # 30     ecut=    70.00 Ry     beta= 0.40
     Davidson diagonalization with overlap

---- Real-time Memory Report at c_bands before calling an iterative solver
            91 MiB given to the printing process from OS
             0 MiB allocation reported by mallinfo(arena+hblkhd)
          2687 MiB available memory on the node where the printing process lives
------------------
     ethr =  4.36E-07,  avg # of iterations =  2.0

     total cpu time spent up to now is       47.4 secs

     total energy              =    -364.66924210 Ry
     estimated scf accuracy    <       0.00126974 Ry

     iteration # 31     ecut=    70.00 Ry     beta= 0.40
     Davidson diagonalization with overlap

---- Real-time Memory Report at c_bands before calling an iterative solver
            91 MiB given to the printing process from OS
             0 MiB allocation reported by mallinfo(arena+hblkhd)
          2687 MiB available memory on the node where the printing process lives
------------------
     ethr =  4.36E-07,  avg # of iterations =  3.8

     total cpu time spent up to now is       49.4 secs

     total energy              =    -364.66939125 Ry
     estimated scf accuracy    <       0.00390001 Ry

     iteration # 32     ecut=    70.00 Ry     beta= 0.40
     Davidson diagonalization with overlap

---- Real-time Memory Report at c_bands before calling an iterative solver
            91 MiB given to the printing process from OS
             0 MiB allocation reported by mallinfo(arena+hblkhd)
          2687 MiB available memory on the node where the printing process lives
------------------
     ethr =  4.36E-07,  avg # of iterations =  2.2

     total cpu time spent up to now is       50.9 secs

     total energy              =    -364.66867896 Ry
     estimated scf accuracy    <       0.00400487 Ry

     iteration # 33     ecut=    70.00 Ry     beta= 0.40
     Davidson diagonalization with overlap

---- Real-time Memory Report at c_bands before calling an iterative solver
            91 MiB given to the printing process from OS
             0 MiB allocation reported by mallinfo(arena+hblkhd)
          2682 MiB available memory on the node where the printing process lives
------------------
     ethr =  4.36E-07,  avg # of iterations =  3.6

     total cpu time spent up to now is       52.8 secs

     total energy              =    -364.66935302 Ry
     estimated scf accuracy    <       0.00267569 Ry

     iteration # 34     ecut=    70.00 Ry     beta= 0.40
     Davidson diagonalization with overlap

---- Real-time Memory Report at c_bands before calling an iterative solver
            91 MiB given to the printing process from OS
             0 MiB allocation reported by mallinfo(arena+hblkhd)
          2682 MiB available memory on the node where the printing process lives
------------------
     ethr =  4.36E-07,  avg # of iterations =  2.3

     total cpu time spent up to now is       54.2 secs

     total energy              =    -364.66696522 Ry
     estimated scf accuracy    <       0.00392927 Ry

     iteration # 35     ecut=    70.00 Ry     beta= 0.40
     Davidson diagonalization with overlap

---- Real-time Memory Report at c_bands before calling an iterative solver
            91 MiB given to the printing process from OS
             0 MiB allocation reported by mallinfo(arena+hblkhd)
          2681 MiB available memory on the node where the printing process lives
------------------
     ethr =  4.36E-07,  avg # of iterations =  5.5

     total cpu time spent up to now is       56.6 secs

     total energy              =    -364.66758482 Ry
     estimated scf accuracy    <       0.00012116 Ry

     iteration # 36     ecut=    70.00 Ry     beta= 0.40
     Davidson diagonalization with overlap

---- Real-time Memory Report at c_bands before calling an iterative solver
            91 MiB given to the printing process from OS
             0 MiB allocation reported by mallinfo(arena+hblkhd)
          2688 MiB available memory on the node where the printing process lives
------------------
     ethr =  4.33E-07,  avg # of iterations =  2.0

     total cpu time spent up to now is       58.0 secs

     total energy              =    -364.66759155 Ry
     estimated scf accuracy    <       0.00000855 Ry

     iteration # 37     ecut=    70.00 Ry     beta= 0.40
     Davidson diagonalization with overlap

---- Real-time Memory Report at c_bands before calling an iterative solver
            91 MiB given to the printing process from OS
             0 MiB allocation reported by mallinfo(arena+hblkhd)
          2688 MiB available memory on the node where the printing process lives
------------------
     ethr =  3.05E-08,  avg # of iterations =  4.0

     total cpu time spent up to now is       59.6 secs

     total energy              =    -364.66776424 Ry
     estimated scf accuracy    <       0.00062038 Ry

     iteration # 38     ecut=    70.00 Ry     beta= 0.40
     Davidson diagonalization with overlap

---- Real-time Memory Report at c_bands before calling an iterative solver
            91 MiB given to the printing process from OS
             0 MiB allocation reported by mallinfo(arena+hblkhd)
          2688 MiB available memory on the node where the printing process lives
------------------
     ethr =  3.05E-08,  avg # of iterations =  3.1

     total cpu time spent up to now is       61.3 secs

     total energy              =    -364.66774527 Ry
     estimated scf accuracy    <       0.00038768 Ry

     iteration # 39     ecut=    70.00 Ry     beta= 0.40
     Davidson diagonalization with overlap

---- Real-time Memory Report at c_bands before calling an iterative solver
            91 MiB given to the printing process from OS
             0 MiB allocation reported by mallinfo(arena+hblkhd)
          2688 MiB available memory on the node where the printing process lives
------------------
     ethr =  3.05E-08,  avg # of iterations =  1.9

     total cpu time spent up to now is       62.7 secs

     total energy              =    -364.66768245 Ry
     estimated scf accuracy    <       0.00033609 Ry

     iteration # 40     ecut=    70.00 Ry     beta= 0.40
     Davidson diagonalization with overlap

---- Real-time Memory Report at c_bands before calling an iterative solver
            91 MiB given to the printing process from OS
             0 MiB allocation reported by mallinfo(arena+hblkhd)
          2687 MiB available memory on the node where the printing process lives
------------------
     ethr =  3.05E-08,  avg # of iterations =  2.4

     total cpu time spent up to now is       64.2 secs

     total energy              =    -364.66762522 Ry
     estimated scf accuracy    <       0.00020212 Ry

     iteration # 41     ecut=    70.00 Ry     beta= 0.40
     Davidson diagonalization with overlap

---- Real-time Memory Report at c_bands before calling an iterative solver
            91 MiB given to the printing process from OS
             0 MiB allocation reported by mallinfo(arena+hblkhd)
          2688 MiB available memory on the node where the printing process lives
------------------
     ethr =  3.05E-08,  avg # of iterations =  3.4

     total cpu time spent up to now is       65.9 secs

     total energy              =    -364.66758797 Ry
     estimated scf accuracy    <       0.00007754 Ry

     iteration # 42     ecut=    70.00 Ry     beta= 0.40
     Davidson diagonalization with overlap

---- Real-time Memory Report at c_bands before calling an iterative solver
            91 MiB given to the printing process from OS
             0 MiB allocation reported by mallinfo(arena+hblkhd)
          2701 MiB available memory on the node where the printing process lives
------------------
     ethr =  3.05E-08,  avg # of iterations =  3.9

     total cpu time spent up to now is       67.9 secs

     total energy              =    -364.66786315 Ry
     estimated scf accuracy    <       0.00057652 Ry

     iteration # 43     ecut=    70.00 Ry     beta= 0.40
     Davidson diagonalization with overlap

---- Real-time Memory Report at c_bands before calling an iterative solver
            91 MiB given to the printing process from OS
             0 MiB allocation reported by mallinfo(arena+hblkhd)
          2701 MiB available memory on the node where the printing process lives
------------------
     ethr =  3.05E-08,  avg # of iterations =  1.0

     total cpu time spent up to now is       69.1 secs

     total energy              =    -364.66786833 Ry
     estimated scf accuracy    <       0.00058911 Ry

     iteration # 44     ecut=    70.00 Ry     beta= 0.40
     Davidson diagonalization with overlap

---- Real-time Memory Report at c_bands before calling an iterative solver
            91 MiB given to the printing process from OS
             0 MiB allocation reported by mallinfo(arena+hblkhd)
          2702 MiB available memory on the node where the printing process lives
------------------
     ethr =  3.05E-08,  avg # of iterations =  1.4

     total cpu time spent up to now is       70.4 secs

     total energy              =    -364.66785246 Ry
     estimated scf accuracy    <       0.00060416 Ry

     iteration # 45     ecut=    70.00 Ry     beta= 0.40
     Davidson diagonalization with overlap

---- Real-time Memory Report at c_bands before calling an iterative solver
            91 MiB given to the printing process from OS
             0 MiB allocation reported by mallinfo(arena+hblkhd)
          2700 MiB available memory on the node where the printing process lives
------------------
     ethr =  3.05E-08,  avg # of iterations =  1.0

     total cpu time spent up to now is       71.6 secs

     total energy              =    -364.66799106 Ry
     estimated scf accuracy    <       0.00056925 Ry

     iteration # 46     ecut=    70.00 Ry     beta= 0.40
     Davidson diagonalization with overlap

---- Real-time Memory Report at c_bands before calling an iterative solver
            91 MiB given to the printing process from OS
             0 MiB allocation reported by mallinfo(arena+hblkhd)
          2699 MiB available memory on the node where the printing process lives
------------------
     ethr =  3.05E-08,  avg # of iterations =  3.1

     total cpu time spent up to now is       73.4 secs

     total energy              =    -364.66800785 Ry
     estimated scf accuracy    <       0.00087949 Ry

     iteration # 47     ecut=    70.00 Ry     beta= 0.40
     Davidson diagonalization with overlap

---- Real-time Memory Report at c_bands before calling an iterative solver
            91 MiB given to the printing process from OS
             0 MiB allocation reported by mallinfo(arena+hblkhd)
          2698 MiB available memory on the node where the printing process lives
------------------
     ethr =  3.05E-08,  avg # of iterations =  1.0

     total cpu time spent up to now is       74.6 secs

     total energy              =    -364.66801596 Ry
     estimated scf accuracy    <       0.00090818 Ry

     iteration # 48     ecut=    70.00 Ry     beta= 0.40
     Davidson diagonalization with overlap

---- Real-time Memory Report at c_bands before calling an iterative solver
            91 MiB given to the printing process from OS
             0 MiB allocation reported by mallinfo(arena+hblkhd)
          2699 MiB available memory on the node where the printing process lives
------------------
     ethr =  3.05E-08,  avg # of iterations =  1.0

     total cpu time spent up to now is       75.8 secs

     total energy              =    -364.66796200 Ry
     estimated scf accuracy    <       0.00092661 Ry

     iteration # 49     ecut=    70.00 Ry     beta= 0.40
     Davidson diagonalization with overlap

---- Real-time Memory Report at c_bands before calling an iterative solver
            91 MiB given to the printing process from OS
             0 MiB allocation reported by mallinfo(arena+hblkhd)
          2697 MiB available memory on the node where the printing process lives
------------------
     ethr =  3.05E-08,  avg # of iterations =  2.0

     total cpu time spent up to now is       77.3 secs

     total energy              =    -364.66766839 Ry
     estimated scf accuracy    <       0.00081427 Ry

     iteration # 50     ecut=    70.00 Ry     beta= 0.40
     Davidson diagonalization with overlap

---- Real-time Memory Report at c_bands before calling an iterative solver
            91 MiB given to the printing process from OS
             0 MiB allocation reported by mallinfo(arena+hblkhd)
          2697 MiB available memory on the node where the printing process lives
------------------
     c_bands:  1 eigenvalues not converged
     ethr =  3.05E-08,  avg # of iterations =  5.2

     total cpu time spent up to now is       79.3 secs

     total energy              =    -364.66779643 Ry
     estimated scf accuracy    <       0.00036599 Ry

     iteration # 51     ecut=    70.00 Ry     beta= 0.40
     Davidson diagonalization with overlap

---- Real-time Memory Report at c_bands before calling an iterative solver
            91 MiB given to the printing process from OS
             0 MiB allocation reported by mallinfo(arena+hblkhd)
          2696 MiB available memory on the node where the printing process lives
------------------
     c_bands:  2 eigenvalues not converged
     ethr =  3.05E-08,  avg # of iterations =  5.8

     total cpu time spent up to now is       81.6 secs

     total energy              =    -364.66786204 Ry
     estimated scf accuracy    <       0.00058247 Ry

     iteration # 52     ecut=    70.00 Ry     beta= 0.40
     Davidson diagonalization with overlap

---- Real-time Memory Report at c_bands before calling an iterative solver
            91 MiB given to the printing process from OS
             0 MiB allocation reported by mallinfo(arena+hblkhd)
          2696 MiB available memory on the node where the printing process lives
------------------
     ethr =  3.05E-08,  avg # of iterations =  1.6

     total cpu time spent up to now is       82.9 secs

     total energy              =    -364.66796382 Ry
     estimated scf accuracy    <       0.00070394 Ry

     iteration # 53     ecut=    70.00 Ry     beta= 0.40
     Davidson diagonalization with overlap

---- Real-time Memory Report at c_bands before calling an iterative solver
            91 MiB given to the printing process from OS
             0 MiB allocation reported by mallinfo(arena+hblkhd)
          2696 MiB available memory on the node where the printing process lives
------------------
     ethr =  3.05E-08,  avg # of iterations =  2.0

     total cpu time spent up to now is       84.3 secs

     total energy              =    -364.66793850 Ry
     estimated scf accuracy    <       0.00081160 Ry

     iteration # 54     ecut=    70.00 Ry     beta= 0.40
     Davidson diagonalization with overlap

---- Real-time Memory Report at c_bands before calling an iterative solver
            91 MiB given to the printing process from OS
             0 MiB allocation reported by mallinfo(arena+hblkhd)
          2696 MiB available memory on the node where the printing process lives
------------------
     ethr =  3.05E-08,  avg # of iterations =  1.0

     total cpu time spent up to now is       85.5 secs

     total energy              =    -364.66791024 Ry
     estimated scf accuracy    <       0.00075866 Ry

     iteration # 55     ecut=    70.00 Ry     beta= 0.40
     Davidson diagonalization with overlap

---- Real-time Memory Report at c_bands before calling an iterative solver
            91 MiB given to the printing process from OS
             0 MiB allocation reported by mallinfo(arena+hblkhd)
          2696 MiB available memory on the node where the printing process lives
------------------
     ethr =  3.05E-08,  avg # of iterations =  2.0

     total cpu time spent up to now is       86.8 secs

     total energy              =    -364.66791554 Ry
     estimated scf accuracy    <       0.00069730 Ry

     iteration # 56     ecut=    70.00 Ry     beta= 0.40
     Davidson diagonalization with overlap

---- Real-time Memory Report at c_bands before calling an iterative solver
            91 MiB given to the printing process from OS
             0 MiB allocation reported by mallinfo(arena+hblkhd)
          2696 MiB available memory on the node where the printing process lives
------------------
     ethr =  3.05E-08,  avg # of iterations =  1.5

     total cpu time spent up to now is       88.1 secs

     total energy              =    -364.66796378 Ry
     estimated scf accuracy    <       0.00070741 Ry

     iteration # 57     ecut=    70.00 Ry     beta= 0.40
     Davidson diagonalization with overlap

---- Real-time Memory Report at c_bands before calling an iterative solver
            91 MiB given to the printing process from OS
             0 MiB allocation reported by mallinfo(arena+hblkhd)
          2697 MiB available memory on the node where the printing process lives
------------------
     ethr =  3.05E-08,  avg # of iterations =  2.0

     total cpu time spent up to now is       89.5 secs

     total energy              =    -364.66801157 Ry
     estimated scf accuracy    <       0.00081163 Ry

     iteration # 58     ecut=    70.00 Ry     beta= 0.40
     Davidson diagonalization with overlap

---- Real-time Memory Report at c_bands before calling an iterative solver
            91 MiB given to the printing process from OS
             0 MiB allocation reported by mallinfo(arena+hblkhd)
          2696 MiB available memory on the node where the printing process lives
------------------
     ethr =  3.05E-08,  avg # of iterations =  2.0

     total cpu time spent up to now is       91.0 secs

     total energy              =    -364.66756085 Ry
     estimated scf accuracy    <       0.00091668 Ry

     iteration # 59     ecut=    70.00 Ry     beta= 0.40
     Davidson diagonalization with overlap

---- Real-time Memory Report at c_bands before calling an iterative solver
            91 MiB given to the printing process from OS
             0 MiB allocation reported by mallinfo(arena+hblkhd)
          2695 MiB available memory on the node where the printing process lives
------------------
     c_bands:  1 eigenvalues not converged
     ethr =  3.05E-08,  avg # of iterations =  6.3

     total cpu time spent up to now is       93.4 secs

     total energy              =    -364.66775226 Ry
     estimated scf accuracy    <       0.00057600 Ry

     iteration # 60     ecut=    70.00 Ry     beta= 0.40
     Davidson diagonalization with overlap

---- Real-time Memory Report at c_bands before calling an iterative solver
            91 MiB given to the printing process from OS
             0 MiB allocation reported by mallinfo(arena+hblkhd)
          2695 MiB available memory on the node where the printing process lives
------------------
     c_bands:  1 eigenvalues not converged
     ethr =  3.05E-08,  avg # of iterations =  6.1

     total cpu time spent up to now is       95.8 secs

     total energy              =    -364.66777324 Ry
     estimated scf accuracy    <       0.00095335 Ry

     iteration # 61     ecut=    70.00 Ry     beta= 0.40
     Davidson diagonalization with overlap

---- Real-time Memory Report at c_bands before calling an iterative solver
            91 MiB given to the printing process from OS
             0 MiB allocation reported by mallinfo(arena+hblkhd)
          2691 MiB available memory on the node where the printing process lives
------------------
     c_bands:  2 eigenvalues not converged
     ethr =  3.05E-08,  avg # of iterations =  6.1

     total cpu time spent up to now is       98.1 secs

     total energy              =    -364.66772081 Ry
     estimated scf accuracy    <       0.00054025 Ry

     iteration # 62     ecut=    70.00 Ry     beta= 0.40
     Davidson diagonalization with overlap

---- Real-time Memory Report at c_bands before calling an iterative solver
            91 MiB given to the printing process from OS
             0 MiB allocation reported by mallinfo(arena+hblkhd)
          2690 MiB available memory on the node where the printing process lives
------------------
     ethr =  3.05E-08,  avg # of iterations =  3.8

     total cpu time spent up to now is       99.8 secs

     total energy              =    -364.66793338 Ry
     estimated scf accuracy    <       0.00082999 Ry

     iteration # 63     ecut=    70.00 Ry     beta= 0.40
     Davidson diagonalization with overlap

---- Real-time Memory Report at c_bands before calling an iterative solver
            91 MiB given to the printing process from OS
             0 MiB allocation reported by mallinfo(arena+hblkhd)
          2690 MiB available memory on the node where the printing process lives
------------------
     ethr =  3.05E-08,  avg # of iterations =  4.0

     total cpu time spent up to now is      101.6 secs

     total energy              =    -364.66798868 Ry
     estimated scf accuracy    <       0.00078367 Ry

     iteration # 64     ecut=    70.00 Ry     beta= 0.40
     Davidson diagonalization with overlap

---- Real-time Memory Report at c_bands before calling an iterative solver
            91 MiB given to the printing process from OS
             0 MiB allocation reported by mallinfo(arena+hblkhd)
          2686 MiB available memory on the node where the printing process lives
------------------
     ethr =  3.05E-08,  avg # of iterations =  2.0

     total cpu time spent up to now is      103.0 secs

     total energy              =    -364.66824033 Ry
     estimated scf accuracy    <       0.00088497 Ry

     iteration # 65     ecut=    70.00 Ry     beta= 0.40
     Davidson diagonalization with overlap

---- Real-time Memory Report at c_bands before calling an iterative solver
            91 MiB given to the printing process from OS
             0 MiB allocation reported by mallinfo(arena+hblkhd)
          2687 MiB available memory on the node where the printing process lives
------------------
     ethr =  3.05E-08,  avg # of iterations =  4.4

     total cpu time spent up to now is      105.0 secs

     total energy              =    -364.66838841 Ry
     estimated scf accuracy    <       0.00147539 Ry

     iteration # 66     ecut=    70.00 Ry     beta= 0.40
     Davidson diagonalization with overlap

---- Real-time Memory Report at c_bands before calling an iterative solver
            91 MiB given to the printing process from OS
             0 MiB allocation reported by mallinfo(arena+hblkhd)
          2685 MiB available memory on the node where the printing process lives
------------------
     ethr =  3.05E-08,  avg # of iterations =  2.3

     total cpu time spent up to now is      106.4 secs

     total energy              =    -364.66832879 Ry
     estimated scf accuracy    <       0.00177255 Ry

     iteration # 67     ecut=    70.00 Ry     beta= 0.40
     Davidson diagonalization with overlap

---- Real-time Memory Report at c_bands before calling an iterative solver
            91 MiB given to the printing process from OS
             0 MiB allocation reported by mallinfo(arena+hblkhd)
          2678 MiB available memory on the node where the printing process lives
------------------
     ethr =  3.05E-08,  avg # of iterations =  3.5

     total cpu time spent up to now is      108.1 secs

     total energy              =    -364.66804369 Ry
     estimated scf accuracy    <       0.00165656 Ry

     iteration # 68     ecut=    70.00 Ry     beta= 0.40
     Davidson diagonalization with overlap

---- Real-time Memory Report at c_bands before calling an iterative solver
            91 MiB given to the printing process from OS
             0 MiB allocation reported by mallinfo(arena+hblkhd)
          2678 MiB available memory on the node where the printing process lives
------------------
     c_bands:  2 eigenvalues not converged
     ethr =  3.05E-08,  avg # of iterations =  6.0

     total cpu time spent up to now is      110.3 secs

     total energy              =    -364.66740976 Ry
     estimated scf accuracy    <       0.00107553 Ry

     iteration # 69     ecut=    70.00 Ry     beta= 0.40
     Davidson diagonalization with overlap

---- Real-time Memory Report at c_bands before calling an iterative solver
            91 MiB given to the printing process from OS
             0 MiB allocation reported by mallinfo(arena+hblkhd)
          2675 MiB available memory on the node where the printing process lives
------------------
     c_bands:  2 eigenvalues not converged
     ethr =  3.05E-08,  avg # of iterations =  7.5

     total cpu time spent up to now is      113.2 secs

     total energy              =    -364.66772194 Ry
     estimated scf accuracy    <       0.00041184 Ry

     iteration # 70     ecut=    70.00 Ry     beta= 0.40
     Davidson diagonalization with overlap

---- Real-time Memory Report at c_bands before calling an iterative solver
            91 MiB given to the printing process from OS
             0 MiB allocation reported by mallinfo(arena+hblkhd)
          2671 MiB available memory on the node where the printing process lives
------------------
     c_bands:  2 eigenvalues not converged
     ethr =  3.05E-08,  avg # of iterations =  2.9

     total cpu time spent up to now is      114.7 secs

     total energy              =    -364.66758399 Ry
     estimated scf accuracy    <       0.00132999 Ry

     iteration # 71     ecut=    70.00 Ry     beta= 0.40
     Davidson diagonalization with overlap

---- Real-time Memory Report at c_bands before calling an iterative solver
            91 MiB given to the printing process from OS
             0 MiB allocation reported by mallinfo(arena+hblkhd)
          2670 MiB available memory on the node where the printing process lives
------------------
     c_bands:  2 eigenvalues not converged
     ethr =  3.05E-08,  avg # of iterations =  6.2

     total cpu time spent up to now is      117.2 secs

     total energy              =    -364.66772623 Ry
     estimated scf accuracy    <       0.00052398 Ry

     iteration # 72     ecut=    70.00 Ry     beta= 0.40
     Davidson diagonalization with overlap

---- Real-time Memory Report at c_bands before calling an iterative solver
            91 MiB given to the printing process from OS
             0 MiB allocation reported by mallinfo(arena+hblkhd)
          2663 MiB available memory on the node where the printing process lives
------------------
     c_bands:  1 eigenvalues not converged
     ethr =  3.05E-08,  avg # of iterations =  3.6

     total cpu time spent up to now is      119.1 secs

     total energy              =    -364.66760093 Ry
     estimated scf accuracy    <       0.00030990 Ry

     iteration # 73     ecut=    70.00 Ry     beta= 0.40
     Davidson diagonalization with overlap

---- Real-time Memory Report at c_bands before calling an iterative solver
            91 MiB given to the printing process from OS
             0 MiB allocation reported by mallinfo(arena+hblkhd)
          2662 MiB available memory on the node where the printing process lives
------------------
     c_bands:  2 eigenvalues not converged
     ethr =  3.05E-08,  avg # of iterations =  5.7

     total cpu time spent up to now is      121.3 secs

     total energy              =    -364.66763773 Ry
     estimated scf accuracy    <       0.00007531 Ry

     iteration # 74     ecut=    70.00 Ry     beta= 0.40
     Davidson diagonalization with overlap

---- Real-time Memory Report at c_bands before calling an iterative solver
            91 MiB given to the printing process from OS
             0 MiB allocation reported by mallinfo(arena+hblkhd)
          2656 MiB available memory on the node where the printing process lives
------------------
     c_bands:  2 eigenvalues not converged
     ethr =  3.05E-08,  avg # of iterations =  2.7

     total cpu time spent up to now is      122.8 secs

     total energy              =    -364.66760166 Ry
     estimated scf accuracy    <       0.00013399 Ry

     iteration # 75     ecut=    70.00 Ry     beta= 0.40
     Davidson diagonalization with overlap

---- Real-time Memory Report at c_bands before calling an iterative solver
            91 MiB given to the printing process from OS
             0 MiB allocation reported by mallinfo(arena+hblkhd)
          2656 MiB available memory on the node where the printing process lives
------------------
     c_bands:  2 eigenvalues not converged
     ethr =  3.05E-08,  avg # of iterations =  4.0

     total cpu time spent up to now is      124.8 secs

     total energy              =    -364.66777308 Ry
     estimated scf accuracy    <       0.00015455 Ry

     iteration # 76     ecut=    70.00 Ry     beta= 0.40
     Davidson diagonalization with overlap

---- Real-time Memory Report at c_bands before calling an iterative solver
            91 MiB given to the printing process from OS
             0 MiB allocation reported by mallinfo(arena+hblkhd)
          2655 MiB available memory on the node where the printing process lives
------------------
     c_bands:  1 eigenvalues not converged
     ethr =  3.05E-08,  avg # of iterations =  5.6

     total cpu time spent up to now is      127.1 secs

     total energy              =    -364.66789437 Ry
     estimated scf accuracy    <       0.00081709 Ry

     iteration # 77     ecut=    70.00 Ry     beta= 0.40
     Davidson diagonalization with overlap

---- Real-time Memory Report at c_bands before calling an iterative solver
            91 MiB given to the printing process from OS
             0 MiB allocation reported by mallinfo(arena+hblkhd)
          2648 MiB available memory on the node where the printing process lives
------------------
     ethr =  3.05E-08,  avg # of iterations =  2.4

     total cpu time spent up to now is      128.5 secs

     total energy              =    -364.66786135 Ry
     estimated scf accuracy    <       0.00068449 Ry

     iteration # 78     ecut=    70.00 Ry     beta= 0.40
     Davidson diagonalization with overlap

---- Real-time Memory Report at c_bands before calling an iterative solver
            91 MiB given to the printing process from OS
             0 MiB allocation reported by mallinfo(arena+hblkhd)
          2648 MiB available memory on the node where the printing process lives
------------------
     ethr =  3.05E-08,  avg # of iterations =  2.0

     total cpu time spent up to now is      129.9 secs

     total energy              =    -364.66761145 Ry
     estimated scf accuracy    <       0.00060692 Ry

     iteration # 79     ecut=    70.00 Ry     beta= 0.40
     Davidson diagonalization with overlap

---- Real-time Memory Report at c_bands before calling an iterative solver
            91 MiB given to the printing process from OS
             0 MiB allocation reported by mallinfo(arena+hblkhd)
          2648 MiB available memory on the node where the printing process lives
------------------
     c_bands:  2 eigenvalues not converged
     ethr =  3.05E-08,  avg # of iterations =  6.1

     total cpu time spent up to now is      132.2 secs

     total energy              =    -364.66773633 Ry
     estimated scf accuracy    <       0.00023005 Ry

     iteration # 80     ecut=    70.00 Ry     beta= 0.40
     Davidson diagonalization with overlap

---- Real-time Memory Report at c_bands before calling an iterative solver
            91 MiB given to the printing process from OS
             0 MiB allocation reported by mallinfo(arena+hblkhd)
          2640 MiB available memory on the node where the printing process lives
------------------
     c_bands:  2 eigenvalues not converged
     ethr =  3.05E-08,  avg # of iterations =  3.1

     total cpu time spent up to now is      133.6 secs

     total energy              =    -364.66769226 Ry
     estimated scf accuracy    <       0.00057522 Ry

     End of self-consistent calculation

     convergence NOT achieved after  80 iterations: stopping

     Writing config to output data dir ./out/GaAs.save/ :
     XML data file, charge density

     init_run     :      1.31s CPU      1.33s WALL (       1 calls)
     electrons    :    131.83s CPU    132.28s WALL (       1 calls)

     Called by init_run:
     wfcinit      :      0.72s CPU      0.73s WALL (       1 calls)
     wfcinit:atom :      0.01s CPU      0.01s WALL (      27 calls)
     wfcinit:wfcr :      0.64s CPU      0.65s WALL (      27 calls)
     potinit      :      0.14s CPU      0.14s WALL (       1 calls)
     hinit0       :      0.42s CPU      0.43s WALL (       1 calls)

     Called by electrons:
     c_bands      :    114.40s CPU    114.78s WALL (      81 calls)
     sum_band     :     15.89s CPU     15.93s WALL (      81 calls)
     v_of_rho     :      0.81s CPU      0.82s WALL (      81 calls)
     v_h          :      0.16s CPU      0.16s WALL (      81 calls)
     v_xc         :      0.66s CPU      0.66s WALL (      81 calls)
     mix_rho      :      0.44s CPU      0.44s WALL (      81 calls)

     Called by c_bands:
     init_us_2    :      3.03s CPU      3.05s WALL (    4401 calls)
     cegterg      :    108.35s CPU    108.71s WALL (    2187 calls)

     Called by sum_band:
     sum_band:wei :      0.00s CPU      0.00s WALL (      81 calls)
     sum_band:loo :     15.68s CPU     15.72s WALL (      81 calls)
     sum_band:buf :      0.13s CPU      0.13s WALL (    2187 calls)
     sum_band:ini :      1.59s CPU      1.59s WALL (    2187 calls)

     Called by *egterg:
     cdiaghg      :      1.13s CPU      1.13s WALL (    8578 calls)
     cegterg:over :      6.78s CPU      6.80s WALL (    6418 calls)
     cegterg:upda :      3.36s CPU      3.37s WALL (    6418 calls)
     cegterg:last :      5.79s CPU      5.81s WALL (    4747 calls)
     h_psi        :     88.70s CPU     89.02s WALL (    8632 calls)
     g_psi        :      0.48s CPU      0.48s WALL (    6418 calls)

     Called by h_psi:
     h_psi:calbec :      7.84s CPU      7.86s WALL (    8632 calls)
     vloc_psi     :     74.29s CPU     74.57s WALL (    8632 calls)
     add_vuspsi   :      6.28s CPU      6.30s WALL (    8632 calls)

     General routines
     calbec       :      7.82s CPU      7.85s WALL (    8632 calls)
     fft          :      0.68s CPU      0.69s WALL (     406 calls)
     ffts         :      0.18s CPU      0.18s WALL (     162 calls)
     fftw         :     73.45s CPU     73.72s WALL (  196244 calls)
     interpolate  :      0.27s CPU      0.27s WALL (      81 calls)
     davcio       :      0.01s CPU      0.01s WALL (      45 calls)

     Parallel routines

     PWSCF        :   2m13.18s CPU   2m13.66s WALL


   This run was terminated on:  12:22:38  20Aug2024            

=------------------------------------------------------------------------------=
   JOB DONE.
=------------------------------------------------------------------------------=
