
     Program PWSCF v.7.3.1 starts on 20Aug2024 at 11: 9:57 

     This program is part of the open-source Quantum ESPRESSO suite
     for quantum simulation of materials; please cite
         "P. Giannozzi et al., J. Phys.:Condens. Matter 21 395502 (2009);
         "P. Giannozzi et al., J. Phys.:Condens. Matter 29 465901 (2017);
         "P. Giannozzi et al., J. Chem. Phys. 152 154105 (2020);
          URL http://www.quantum-espresso.org", 
     in publications or presentations arising from this work. More details at
     http://www.quantum-espresso.org/quote

     Parallel version (MPI), running on     1 processors

     MPI processes distributed on     1 nodes
     435 MiB available memory on the printing compute node when the environment starts

     Reading input from GaAs.pwi

     Current dimensions of program PWSCF are:
     Max number of different atomic species (ntypx) = 10
     Max number of k-points (npk) =  40000
     Max angular momentum in pseudopotentials (lmaxx) =  4
     Message from routine volume:
     axis vectors are left-handed

     Subspace diagonalization in iterative solution of the eigenvalue problem:
     a serial algorithm will be used


     G-vector sticks info
     --------------------
     sticks:   dense  smooth     PW     G-vecs:    dense   smooth      PW
     Sum        2263    1147    349                71537    25509    4279

     Using Slab Decomposition



     bravais-lattice index     =            0
     lattice parameter (alat)  =       7.6834  a.u.
     unit-cell volume          =     320.7304 (a.u.)^3
     number of atoms/cell      =            2
     number of atomic types    =            2
     number of electrons       =        28.00
     number of Kohn-Sham states=           14
     kinetic-energy cutoff     =      70.0000  Ry
     charge density cutoff     =     560.0000  Ry
     scf convergence threshold =      4.0E-10
     mixing beta               =       0.4000
     number of iterations used =            8  plain     mixing
     Exchange-correlation= SLA  PW   NOGX NOGC
                           (   1   4   0   0   0   0   0)

     celldm(1)=   7.683369  celldm(2)=   0.000000  celldm(3)=   0.000000
     celldm(4)=   0.000000  celldm(5)=   0.000000  celldm(6)=   0.000000

     crystal axes: (cart. coord. in units of alat)
               a(1) = (   0.707107   0.707107   0.000000 )  
               a(2) = (   0.707107   0.000000   0.707107 )  
               a(3) = (   0.000000   0.707107   0.707107 )  

     reciprocal axes: (cart. coord. in units 2 pi/alat)
               b(1) = (  0.707107  0.707107 -0.707107 )  
               b(2) = (  0.707107 -0.707107  0.707107 )  
               b(3) = ( -0.707107  0.707107  0.707107 )  


     PseudoPot. # 1 for As read from file:
     ./pseudo/As.upf
     MD5 check sum: 33c531620a5edaf59d417d4ab58437b1
     Pseudo is Norm-conserving + core correction, Zval = 15.0
     Generated using ONCVPSP code by D. R. Hamann
     Using radial grid of 1326 points,  6 beta functions with: 
                l(1) =   0
                l(2) =   0
                l(3) =   1
                l(4) =   1
                l(5) =   2
                l(6) =   2

     PseudoPot. # 2 for Ga read from file:
     ./pseudo/Ga.upf
     MD5 check sum: 1297264db1911d3fa8c63c42f023f390
     Pseudo is Norm-conserving + core correction, Zval = 13.0
     Generated using ONCVPSP code by D. R. Hamann
     Using radial grid of 1858 points,  6 beta functions with: 
                l(1) =   0
                l(2) =   0
                l(3) =   1
                l(4) =   1
                l(5) =   2
                l(6) =   2

     atomic species   valence    mass     pseudopotential
     As               15.00    74.92160     As( 1.00)
     Ga               13.00    69.72300     Ga( 1.00)

     No symmetry found


                                    s                        frac. trans.

      isym =  1     identity                                     

 cryst.   s( 1) = (     1          0          0      )
                  (     0          1          0      )
                  (     0          0          1      )

 cart.    s( 1) = (  1.0000000  0.0000000  0.0000000 )
                  (  0.0000000  1.0000000  0.0000000 )
                  (  0.0000000  0.0000000  1.0000000 )


   Cartesian axes

     site n.     atom                  positions (alat units)
         1        As     tau(   1) = (   0.3535534   0.3535534   0.3535534  )
         2        Ga     tau(   2) = (   0.0000000   0.0000000   0.0000000  )

   Crystallographic axes

     site n.     atom                  positions (cryst. coord.)
         1        As     tau(   1) = (  0.2500000  0.2500000  0.2500000  )
         2        Ga     tau(   2) = (  0.0000000  0.0000000  0.0000000  )

     number of k points=  2197
                       cart. coord. in units 2pi/alat
        k(    1) = (   0.0000000   0.0000000   0.0000000), wk =   0.0009103
        k(    2) = (  -0.0543928   0.0543928   0.0543928), wk =   0.0009103
        k(    3) = (  -0.1087857   0.1087857   0.1087857), wk =   0.0009103
        k(    4) = (  -0.1631785   0.1631785   0.1631785), wk =   0.0009103
        k(    5) = (  -0.2175713   0.2175713   0.2175713), wk =   0.0009103
        k(    6) = (  -0.2719641   0.2719641   0.2719641), wk =   0.0009103
        k(    7) = (  -0.3263570   0.3263570   0.3263570), wk =   0.0009103
        k(    8) = (   0.3263570  -0.3263570  -0.3263570), wk =   0.0009103
        k(    9) = (   0.2719641  -0.2719641  -0.2719641), wk =   0.0009103
        k(   10) = (   0.2175713  -0.2175713  -0.2175713), wk =   0.0009103
        k(   11) = (   0.1631785  -0.1631785  -0.1631785), wk =   0.0009103
        k(   12) = (   0.1087857  -0.1087857  -0.1087857), wk =   0.0009103
        k(   13) = (   0.0543928  -0.0543928  -0.0543928), wk =   0.0009103
        k(   14) = (   0.0543928  -0.0543928   0.0543928), wk =   0.0009103
        k(   15) = (   0.0000000   0.0000000   0.1087857), wk =   0.0009103
        k(   16) = (  -0.0543928   0.0543928   0.1631785), wk =   0.0009103
        k(   17) = (  -0.1087857   0.1087857   0.2175713), wk =   0.0009103
        k(   18) = (  -0.1631785   0.1631785   0.2719641), wk =   0.0009103
        k(   19) = (  -0.2175713   0.2175713   0.3263570), wk =   0.0009103
        k(   20) = (  -0.2719641   0.2719641   0.3807498), wk =   0.0009103
        k(   21) = (   0.3807498  -0.3807498  -0.2719641), wk =   0.0009103
        k(   22) = (   0.3263570  -0.3263570  -0.2175713), wk =   0.0009103
        k(   23) = (   0.2719641  -0.2719641  -0.1631785), wk =   0.0009103
        k(   24) = (   0.2175713  -0.2175713  -0.1087857), wk =   0.0009103
        k(   25) = (   0.1631785  -0.1631785  -0.0543928), wk =   0.0009103
        k(   26) = (   0.1087857  -0.1087857   0.0000000), wk =   0.0009103
        k(   27) = (   0.1087857  -0.1087857   0.1087857), wk =   0.0009103
        k(   28) = (   0.0543928  -0.0543928   0.1631785), wk =   0.0009103
        k(   29) = (   0.0000000   0.0000000   0.2175713), wk =   0.0009103
        k(   30) = (  -0.0543928   0.0543928   0.2719641), wk =   0.0009103
        k(   31) = (  -0.1087857   0.1087857   0.3263570), wk =   0.0009103
        k(   32) = (  -0.1631785   0.1631785   0.3807498), wk =   0.0009103
        k(   33) = (  -0.2175713   0.2175713   0.4351426), wk =   0.0009103
        k(   34) = (   0.4351426  -0.4351426  -0.2175713), wk =   0.0009103
        k(   35) = (   0.3807498  -0.3807498  -0.1631785), wk =   0.0009103
        k(   36) = (   0.3263570  -0.3263570  -0.1087857), wk =   0.0009103
        k(   37) = (   0.2719641  -0.2719641  -0.0543928), wk =   0.0009103
        k(   38) = (   0.2175713  -0.2175713   0.0000000), wk =   0.0009103
        k(   39) = (   0.1631785  -0.1631785   0.0543928), wk =   0.0009103
        k(   40) = (   0.1631785  -0.1631785   0.1631785), wk =   0.0009103
        k(   41) = (   0.1087857  -0.1087857   0.2175713), wk =   0.0009103
        k(   42) = (   0.0543928  -0.0543928   0.2719641), wk =   0.0009103
        k(   43) = (   0.0000000   0.0000000   0.3263570), wk =   0.0009103
        k(   44) = (  -0.0543928   0.0543928   0.3807498), wk =   0.0009103
        k(   45) = (  -0.1087857   0.1087857   0.4351426), wk =   0.0009103
        k(   46) = (  -0.1631785   0.1631785   0.4895355), wk =   0.0009103
        k(   47) = (   0.4895355  -0.4895355  -0.1631785), wk =   0.0009103
        k(   48) = (   0.4351426  -0.4351426  -0.1087857), wk =   0.0009103
        k(   49) = (   0.3807498  -0.3807498  -0.0543928), wk =   0.0009103
        k(   50) = (   0.3263570  -0.3263570   0.0000000), wk =   0.0009103
        k(   51) = (   0.2719641  -0.2719641   0.0543928), wk =   0.0009103
        k(   52) = (   0.2175713  -0.2175713   0.1087857), wk =   0.0009103
        k(   53) = (   0.2175713  -0.2175713   0.2175713), wk =   0.0009103
        k(   54) = (   0.1631785  -0.1631785   0.2719641), wk =   0.0009103
        k(   55) = (   0.1087857  -0.1087857   0.3263570), wk =   0.0009103
        k(   56) = (   0.0543928  -0.0543928   0.3807498), wk =   0.0009103
        k(   57) = (   0.0000000   0.0000000   0.4351426), wk =   0.0009103
        k(   58) = (  -0.0543928   0.0543928   0.4895355), wk =   0.0009103
        k(   59) = (  -0.1087857   0.1087857   0.5439283), wk =   0.0009103
        k(   60) = (   0.5439283  -0.5439283  -0.1087857), wk =   0.0009103
        k(   61) = (   0.4895355  -0.4895355  -0.0543928), wk =   0.0009103
        k(   62) = (   0.4351426  -0.4351426   0.0000000), wk =   0.0009103
        k(   63) = (   0.3807498  -0.3807498   0.0543928), wk =   0.0009103
        k(   64) = (   0.3263570  -0.3263570   0.1087857), wk =   0.0009103
        k(   65) = (   0.2719641  -0.2719641   0.1631785), wk =   0.0009103
        k(   66) = (   0.2719641  -0.2719641   0.2719641), wk =   0.0009103
        k(   67) = (   0.2175713  -0.2175713   0.3263570), wk =   0.0009103
        k(   68) = (   0.1631785  -0.1631785   0.3807498), wk =   0.0009103
        k(   69) = (   0.1087857  -0.1087857   0.4351426), wk =   0.0009103
        k(   70) = (   0.0543928  -0.0543928   0.4895355), wk =   0.0009103
        k(   71) = (   0.0000000   0.0000000   0.5439283), wk =   0.0009103
        k(   72) = (  -0.0543928   0.0543928   0.5983211), wk =   0.0009103
        k(   73) = (   0.5983211  -0.5983211  -0.0543928), wk =   0.0009103
        k(   74) = (   0.5439283  -0.5439283   0.0000000), wk =   0.0009103
        k(   75) = (   0.4895355  -0.4895355   0.0543928), wk =   0.0009103
        k(   76) = (   0.4351426  -0.4351426   0.1087857), wk =   0.0009103
        k(   77) = (   0.3807498  -0.3807498   0.1631785), wk =   0.0009103
        k(   78) = (   0.3263570  -0.3263570   0.2175713), wk =   0.0009103
        k(   79) = (   0.3263570  -0.3263570   0.3263570), wk =   0.0009103
        k(   80) = (   0.2719641  -0.2719641   0.3807498), wk =   0.0009103
        k(   81) = (   0.2175713  -0.2175713   0.4351426), wk =   0.0009103
        k(   82) = (   0.1631785  -0.1631785   0.4895355), wk =   0.0009103
        k(   83) = (   0.1087857  -0.1087857   0.5439283), wk =   0.0009103
        k(   84) = (   0.0543928  -0.0543928   0.5983211), wk =   0.0009103
        k(   85) = (   0.0000000   0.0000000   0.6527140), wk =   0.0009103
        k(   86) = (   0.6527140  -0.6527140   0.0000000), wk =   0.0009103
        k(   87) = (   0.5983211  -0.5983211   0.0543928), wk =   0.0009103
        k(   88) = (   0.5439283  -0.5439283   0.1087857), wk =   0.0009103
        k(   89) = (   0.4895355  -0.4895355   0.1631785), wk =   0.0009103
        k(   90) = (   0.4351426  -0.4351426   0.2175713), wk =   0.0009103
        k(   91) = (   0.3807498  -0.3807498   0.2719641), wk =   0.0009103
        k(   92) = (  -0.3263570   0.3263570  -0.3263570), wk =   0.0009103
        k(   93) = (  -0.3807498   0.3807498  -0.2719641), wk =   0.0009103
        k(   94) = (  -0.4351426   0.4351426  -0.2175713), wk =   0.0009103
        k(   95) = (  -0.4895355   0.4895355  -0.1631785), wk =   0.0009103
        k(   96) = (  -0.5439283   0.5439283  -0.1087857), wk =   0.0009103
        k(   97) = (  -0.5983211   0.5983211  -0.0543928), wk =   0.0009103
        k(   98) = (  -0.6527140   0.6527140   0.0000000), wk =   0.0009103
        k(   99) = (   0.0000000   0.0000000  -0.6527140), wk =   0.0009103
        k(  100) = (  -0.0543928   0.0543928  -0.5983211), wk =   0.0009103
        k(  101) = (  -0.1087857   0.1087857  -0.5439283), wk =   0.0009103
        k(  102) = (  -0.1631785   0.1631785  -0.4895355), wk =   0.0009103
        k(  103) = (  -0.2175713   0.2175713  -0.4351426), wk =   0.0009103
        k(  104) = (  -0.2719641   0.2719641  -0.3807498), wk =   0.0009103
        k(  105) = (  -0.2719641   0.2719641  -0.2719641), wk =   0.0009103
        k(  106) = (  -0.3263570   0.3263570  -0.2175713), wk =   0.0009103
        k(  107) = (  -0.3807498   0.3807498  -0.1631785), wk =   0.0009103
        k(  108) = (  -0.4351426   0.4351426  -0.1087857), wk =   0.0009103
        k(  109) = (  -0.4895355   0.4895355  -0.0543928), wk =   0.0009103
        k(  110) = (  -0.5439283   0.5439283   0.0000000), wk =   0.0009103
        k(  111) = (  -0.5983211   0.5983211   0.0543928), wk =   0.0009103
        k(  112) = (   0.0543928  -0.0543928  -0.5983211), wk =   0.0009103
        k(  113) = (   0.0000000   0.0000000  -0.5439283), wk =   0.0009103
        k(  114) = (  -0.0543928   0.0543928  -0.4895355), wk =   0.0009103
        k(  115) = (  -0.1087857   0.1087857  -0.4351426), wk =   0.0009103
        k(  116) = (  -0.1631785   0.1631785  -0.3807498), wk =   0.0009103
        k(  117) = (  -0.2175713   0.2175713  -0.3263570), wk =   0.0009103
        k(  118) = (  -0.2175713   0.2175713  -0.2175713), wk =   0.0009103
        k(  119) = (  -0.2719641   0.2719641  -0.1631785), wk =   0.0009103
        k(  120) = (  -0.3263570   0.3263570  -0.1087857), wk =   0.0009103
        k(  121) = (  -0.3807498   0.3807498  -0.0543928), wk =   0.0009103
        k(  122) = (  -0.4351426   0.4351426   0.0000000), wk =   0.0009103
        k(  123) = (  -0.4895355   0.4895355   0.0543928), wk =   0.0009103
        k(  124) = (  -0.5439283   0.5439283   0.1087857), wk =   0.0009103
        k(  125) = (   0.1087857  -0.1087857  -0.5439283), wk =   0.0009103
        k(  126) = (   0.0543928  -0.0543928  -0.4895355), wk =   0.0009103
        k(  127) = (   0.0000000   0.0000000  -0.4351426), wk =   0.0009103
        k(  128) = (  -0.0543928   0.0543928  -0.3807498), wk =   0.0009103
        k(  129) = (  -0.1087857   0.1087857  -0.3263570), wk =   0.0009103
        k(  130) = (  -0.1631785   0.1631785  -0.2719641), wk =   0.0009103
        k(  131) = (  -0.1631785   0.1631785  -0.1631785), wk =   0.0009103
        k(  132) = (  -0.2175713   0.2175713  -0.1087857), wk =   0.0009103
        k(  133) = (  -0.2719641   0.2719641  -0.0543928), wk =   0.0009103
        k(  134) = (  -0.3263570   0.3263570   0.0000000), wk =   0.0009103
        k(  135) = (  -0.3807498   0.3807498   0.0543928), wk =   0.0009103
        k(  136) = (  -0.4351426   0.4351426   0.1087857), wk =   0.0009103
        k(  137) = (  -0.4895355   0.4895355   0.1631785), wk =   0.0009103
        k(  138) = (   0.1631785  -0.1631785  -0.4895355), wk =   0.0009103
        k(  139) = (   0.1087857  -0.1087857  -0.4351426), wk =   0.0009103
        k(  140) = (   0.0543928  -0.0543928  -0.3807498), wk =   0.0009103
        k(  141) = (   0.0000000   0.0000000  -0.3263570), wk =   0.0009103
        k(  142) = (  -0.0543928   0.0543928  -0.2719641), wk =   0.0009103
        k(  143) = (  -0.1087857   0.1087857  -0.2175713), wk =   0.0009103
        k(  144) = (  -0.1087857   0.1087857  -0.1087857), wk =   0.0009103
        k(  145) = (  -0.1631785   0.1631785  -0.0543928), wk =   0.0009103
        k(  146) = (  -0.2175713   0.2175713   0.0000000), wk =   0.0009103
        k(  147) = (  -0.2719641   0.2719641   0.0543928), wk =   0.0009103
        k(  148) = (  -0.3263570   0.3263570   0.1087857), wk =   0.0009103
        k(  149) = (  -0.3807498   0.3807498   0.1631785), wk =   0.0009103
        k(  150) = (  -0.4351426   0.4351426   0.2175713), wk =   0.0009103
        k(  151) = (   0.2175713  -0.2175713  -0.4351426), wk =   0.0009103
        k(  152) = (   0.1631785  -0.1631785  -0.3807498), wk =   0.0009103
        k(  153) = (   0.1087857  -0.1087857  -0.3263570), wk =   0.0009103
        k(  154) = (   0.0543928  -0.0543928  -0.2719641), wk =   0.0009103
        k(  155) = (   0.0000000   0.0000000  -0.2175713), wk =   0.0009103
        k(  156) = (  -0.0543928   0.0543928  -0.1631785), wk =   0.0009103
        k(  157) = (  -0.0543928   0.0543928  -0.0543928), wk =   0.0009103
        k(  158) = (  -0.1087857   0.1087857   0.0000000), wk =   0.0009103
        k(  159) = (  -0.1631785   0.1631785   0.0543928), wk =   0.0009103
        k(  160) = (  -0.2175713   0.2175713   0.1087857), wk =   0.0009103
        k(  161) = (  -0.2719641   0.2719641   0.1631785), wk =   0.0009103
        k(  162) = (  -0.3263570   0.3263570   0.2175713), wk =   0.0009103
        k(  163) = (  -0.3807498   0.3807498   0.2719641), wk =   0.0009103
        k(  164) = (   0.2719641  -0.2719641  -0.3807498), wk =   0.0009103
        k(  165) = (   0.2175713  -0.2175713  -0.3263570), wk =   0.0009103
        k(  166) = (   0.1631785  -0.1631785  -0.2719641), wk =   0.0009103
        k(  167) = (   0.1087857  -0.1087857  -0.2175713), wk =   0.0009103
        k(  168) = (   0.0543928  -0.0543928  -0.1631785), wk =   0.0009103
        k(  169) = (   0.0000000   0.0000000  -0.1087857), wk =   0.0009103
        k(  170) = (   0.0543928   0.0543928  -0.0543928), wk =   0.0009103
        k(  171) = (   0.0000000   0.1087857   0.0000000), wk =   0.0009103
        k(  172) = (  -0.0543928   0.1631785   0.0543928), wk =   0.0009103
        k(  173) = (  -0.1087857   0.2175713   0.1087857), wk =   0.0009103
        k(  174) = (  -0.1631785   0.2719641   0.1631785), wk =   0.0009103
        k(  175) = (  -0.2175713   0.3263570   0.2175713), wk =   0.0009103
        k(  176) = (  -0.2719641   0.3807498   0.2719641), wk =   0.0009103
        k(  177) = (   0.3807498  -0.2719641  -0.3807498), wk =   0.0009103
        k(  178) = (   0.3263570  -0.2175713  -0.3263570), wk =   0.0009103
        k(  179) = (   0.2719641  -0.1631785  -0.2719641), wk =   0.0009103
        k(  180) = (   0.2175713  -0.1087857  -0.2175713), wk =   0.0009103
        k(  181) = (   0.1631785  -0.0543928  -0.1631785), wk =   0.0009103
        k(  182) = (   0.1087857   0.0000000  -0.1087857), wk =   0.0009103
        k(  183) = (   0.1087857   0.0000000   0.0000000), wk =   0.0009103
        k(  184) = (   0.0543928   0.0543928   0.0543928), wk =   0.0009103
        k(  185) = (   0.0000000   0.1087857   0.1087857), wk =   0.0009103
        k(  186) = (  -0.0543928   0.1631785   0.1631785), wk =   0.0009103
        k(  187) = (  -0.1087857   0.2175713   0.2175713), wk =   0.0009103
        k(  188) = (  -0.1631785   0.2719641   0.2719641), wk =   0.0009103
        k(  189) = (  -0.2175713   0.3263570   0.3263570), wk =   0.0009103
        k(  190) = (   0.4351426  -0.3263570  -0.3263570), wk =   0.0009103
        k(  191) = (   0.3807498  -0.2719641  -0.2719641), wk =   0.0009103
        k(  192) = (   0.3263570  -0.2175713  -0.2175713), wk =   0.0009103
        k(  193) = (   0.2719641  -0.1631785  -0.1631785), wk =   0.0009103
        k(  194) = (   0.2175713  -0.1087857  -0.1087857), wk =   0.0009103
        k(  195) = (   0.1631785  -0.0543928  -0.0543928), wk =   0.0009103
        k(  196) = (   0.1631785  -0.0543928   0.0543928), wk =   0.0009103
        k(  197) = (   0.1087857   0.0000000   0.1087857), wk =   0.0009103
        k(  198) = (   0.0543928   0.0543928   0.1631785), wk =   0.0009103
        k(  199) = (   0.0000000   0.1087857   0.2175713), wk =   0.0009103
        k(  200) = (  -0.0543928   0.1631785   0.2719641), wk =   0.0009103
        k(  201) = (  -0.1087857   0.2175713   0.3263570), wk =   0.0009103
        k(  202) = (  -0.1631785   0.2719641   0.3807498), wk =   0.0009103
        k(  203) = (   0.4895355  -0.3807498  -0.2719641), wk =   0.0009103
        k(  204) = (   0.4351426  -0.3263570  -0.2175713), wk =   0.0009103
        k(  205) = (   0.3807498  -0.2719641  -0.1631785), wk =   0.0009103
        k(  206) = (   0.3263570  -0.2175713  -0.1087857), wk =   0.0009103
        k(  207) = (   0.2719641  -0.1631785  -0.0543928), wk =   0.0009103
        k(  208) = (   0.2175713  -0.1087857   0.0000000), wk =   0.0009103
        k(  209) = (   0.2175713  -0.1087857   0.1087857), wk =   0.0009103
        k(  210) = (   0.1631785  -0.0543928   0.1631785), wk =   0.0009103
        k(  211) = (   0.1087857  -0.0000000   0.2175713), wk =   0.0009103
        k(  212) = (   0.0543928   0.0543928   0.2719641), wk =   0.0009103
        k(  213) = (   0.0000000   0.1087857   0.3263570), wk =   0.0009103
        k(  214) = (  -0.0543928   0.1631785   0.3807498), wk =   0.0009103
        k(  215) = (  -0.1087857   0.2175713   0.4351426), wk =   0.0009103
        k(  216) = (   0.5439283  -0.4351426  -0.2175713), wk =   0.0009103
        k(  217) = (   0.4895355  -0.3807498  -0.1631785), wk =   0.0009103
        k(  218) = (   0.4351426  -0.3263570  -0.1087857), wk =   0.0009103
        k(  219) = (   0.3807498  -0.2719641  -0.0543928), wk =   0.0009103
        k(  220) = (   0.3263570  -0.2175713   0.0000000), wk =   0.0009103
        k(  221) = (   0.2719641  -0.1631785   0.0543928), wk =   0.0009103
        k(  222) = (   0.2719641  -0.1631785   0.1631785), wk =   0.0009103
        k(  223) = (   0.2175713  -0.1087857   0.2175713), wk =   0.0009103
        k(  224) = (   0.1631785  -0.0543928   0.2719641), wk =   0.0009103
        k(  225) = (   0.1087857   0.0000000   0.3263570), wk =   0.0009103
        k(  226) = (   0.0543928   0.0543928   0.3807498), wk =   0.0009103
        k(  227) = (   0.0000000   0.1087857   0.4351426), wk =   0.0009103
        k(  228) = (  -0.0543928   0.1631785   0.4895355), wk =   0.0009103
        k(  229) = (   0.5983211  -0.4895355  -0.1631785), wk =   0.0009103
        k(  230) = (   0.5439283  -0.4351426  -0.1087857), wk =   0.0009103
        k(  231) = (   0.4895355  -0.3807498  -0.0543928), wk =   0.0009103
        k(  232) = (   0.4351426  -0.3263570   0.0000000), wk =   0.0009103
        k(  233) = (   0.3807498  -0.2719641   0.0543928), wk =   0.0009103
        k(  234) = (   0.3263570  -0.2175713   0.1087857), wk =   0.0009103
        k(  235) = (   0.3263570  -0.2175713   0.2175713), wk =   0.0009103
        k(  236) = (   0.2719641  -0.1631785   0.2719641), wk =   0.0009103
        k(  237) = (   0.2175713  -0.1087857   0.3263570), wk =   0.0009103
        k(  238) = (   0.1631785  -0.0543928   0.3807498), wk =   0.0009103
        k(  239) = (   0.1087857   0.0000000   0.4351426), wk =   0.0009103
        k(  240) = (   0.0543928   0.0543928   0.4895355), wk =   0.0009103
        k(  241) = (   0.0000000   0.1087857   0.5439283), wk =   0.0009103
        k(  242) = (   0.6527140  -0.5439283  -0.1087857), wk =   0.0009103
        k(  243) = (   0.5983211  -0.4895355  -0.0543928), wk =   0.0009103
        k(  244) = (   0.5439283  -0.4351426   0.0000000), wk =   0.0009103
        k(  245) = (   0.4895355  -0.3807498   0.0543928), wk =   0.0009103
        k(  246) = (   0.4351426  -0.3263570   0.1087857), wk =   0.0009103
        k(  247) = (   0.3807498  -0.2719641   0.1631785), wk =   0.0009103
        k(  248) = (   0.3807498  -0.2719641   0.2719641), wk =   0.0009103
        k(  249) = (   0.3263570  -0.2175713   0.3263570), wk =   0.0009103
        k(  250) = (   0.2719641  -0.1631785   0.3807498), wk =   0.0009103
        k(  251) = (   0.2175713  -0.1087857   0.4351426), wk =   0.0009103
        k(  252) = (   0.1631785  -0.0543928   0.4895355), wk =   0.0009103
        k(  253) = (   0.1087857   0.0000000   0.5439283), wk =   0.0009103
        k(  254) = (   0.0543928   0.0543928   0.5983211), wk =   0.0009103
        k(  255) = (   0.7071068  -0.5983211  -0.0543928), wk =   0.0009103
        k(  256) = (   0.6527140  -0.5439283   0.0000000), wk =   0.0009103
        k(  257) = (   0.5983211  -0.4895355   0.0543928), wk =   0.0009103
        k(  258) = (   0.5439283  -0.4351426   0.1087857), wk =   0.0009103
        k(  259) = (   0.4895355  -0.3807498   0.1631785), wk =   0.0009103
        k(  260) = (   0.4351426  -0.3263570   0.2175713), wk =   0.0009103
        k(  261) = (  -0.2719641   0.3807498  -0.3807498), wk =   0.0009103
        k(  262) = (  -0.3263570   0.4351426  -0.3263570), wk =   0.0009103
        k(  263) = (  -0.3807498   0.4895355  -0.2719641), wk =   0.0009103
        k(  264) = (  -0.4351426   0.5439283  -0.2175713), wk =   0.0009103
        k(  265) = (  -0.4895355   0.5983211  -0.1631785), wk =   0.0009103
        k(  266) = (  -0.5439283   0.6527140  -0.1087857), wk =   0.0009103
        k(  267) = (  -0.5983211   0.7071068  -0.0543928), wk =   0.0009103
        k(  268) = (   0.0543928   0.0543928  -0.7071068), wk =   0.0009103
        k(  269) = (  -0.0000000   0.1087857  -0.6527140), wk =   0.0009103
        k(  270) = (  -0.0543928   0.1631785  -0.5983211), wk =   0.0009103
        k(  271) = (  -0.1087857   0.2175713  -0.5439283), wk =   0.0009103
        k(  272) = (  -0.1631785   0.2719641  -0.4895355), wk =   0.0009103
        k(  273) = (  -0.2175713   0.3263570  -0.4351426), wk =   0.0009103
        k(  274) = (  -0.2175713   0.3263570  -0.3263570), wk =   0.0009103
        k(  275) = (  -0.2719641   0.3807498  -0.2719641), wk =   0.0009103
        k(  276) = (  -0.3263570   0.4351426  -0.2175713), wk =   0.0009103
        k(  277) = (  -0.3807498   0.4895355  -0.1631785), wk =   0.0009103
        k(  278) = (  -0.4351426   0.5439283  -0.1087857), wk =   0.0009103
        k(  279) = (  -0.4895355   0.5983211  -0.0543928), wk =   0.0009103
        k(  280) = (  -0.5439283   0.6527140   0.0000000), wk =   0.0009103
        k(  281) = (   0.1087857  -0.0000000  -0.6527140), wk =   0.0009103
        k(  282) = (   0.0543928   0.0543928  -0.5983211), wk =   0.0009103
        k(  283) = (   0.0000000   0.1087857  -0.5439283), wk =   0.0009103
        k(  284) = (  -0.0543928   0.1631785  -0.4895355), wk =   0.0009103
        k(  285) = (  -0.1087857   0.2175713  -0.4351426), wk =   0.0009103
        k(  286) = (  -0.1631785   0.2719641  -0.3807498), wk =   0.0009103
        k(  287) = (  -0.1631785   0.2719641  -0.2719641), wk =   0.0009103
        k(  288) = (  -0.2175713   0.3263570  -0.2175713), wk =   0.0009103
        k(  289) = (  -0.2719641   0.3807498  -0.1631785), wk =   0.0009103
        k(  290) = (  -0.3263570   0.4351426  -0.1087857), wk =   0.0009103
        k(  291) = (  -0.3807498   0.4895355  -0.0543928), wk =   0.0009103
        k(  292) = (  -0.4351426   0.5439283   0.0000000), wk =   0.0009103
        k(  293) = (  -0.4895355   0.5983211   0.0543928), wk =   0.0009103
        k(  294) = (   0.1631785  -0.0543928  -0.5983211), wk =   0.0009103
        k(  295) = (   0.1087857   0.0000000  -0.5439283), wk =   0.0009103
        k(  296) = (   0.0543928   0.0543928  -0.4895355), wk =   0.0009103
        k(  297) = (  -0.0000000   0.1087857  -0.4351426), wk =   0.0009103
        k(  298) = (  -0.0543928   0.1631785  -0.3807498), wk =   0.0009103
        k(  299) = (  -0.1087857   0.2175713  -0.3263570), wk =   0.0009103
        k(  300) = (  -0.1087857   0.2175713  -0.2175713), wk =   0.0009103
        k(  301) = (  -0.1631785   0.2719641  -0.1631785), wk =   0.0009103
        k(  302) = (  -0.2175713   0.3263570  -0.1087857), wk =   0.0009103
        k(  303) = (  -0.2719641   0.3807498  -0.0543928), wk =   0.0009103
        k(  304) = (  -0.3263570   0.4351426   0.0000000), wk =   0.0009103
        k(  305) = (  -0.3807498   0.4895355   0.0543928), wk =   0.0009103
        k(  306) = (  -0.4351426   0.5439283   0.1087857), wk =   0.0009103
        k(  307) = (   0.2175713  -0.1087857  -0.5439283), wk =   0.0009103
        k(  308) = (   0.1631785  -0.0543928  -0.4895355), wk =   0.0009103
        k(  309) = (   0.1087857  -0.0000000  -0.4351426), wk =   0.0009103
        k(  310) = (   0.0543928   0.0543928  -0.3807498), wk =   0.0009103
        k(  311) = (   0.0000000   0.1087857  -0.3263570), wk =   0.0009103
        k(  312) = (  -0.0543928   0.1631785  -0.2719641), wk =   0.0009103
        k(  313) = (  -0.0543928   0.1631785  -0.1631785), wk =   0.0009103
        k(  314) = (  -0.1087857   0.2175713  -0.1087857), wk =   0.0009103
        k(  315) = (  -0.1631785   0.2719641  -0.0543928), wk =   0.0009103
        k(  316) = (  -0.2175713   0.3263570   0.0000000), wk =   0.0009103
        k(  317) = (  -0.2719641   0.3807498   0.0543928), wk =   0.0009103
        k(  318) = (  -0.3263570   0.4351426   0.1087857), wk =   0.0009103
        k(  319) = (  -0.3807498   0.4895355   0.1631785), wk =   0.0009103
        k(  320) = (   0.2719641  -0.1631785  -0.4895355), wk =   0.0009103
        k(  321) = (   0.2175713  -0.1087857  -0.4351426), wk =   0.0009103
        k(  322) = (   0.1631785  -0.0543928  -0.3807498), wk =   0.0009103
        k(  323) = (   0.1087857   0.0000000  -0.3263570), wk =   0.0009103
        k(  324) = (   0.0543928   0.0543928  -0.2719641), wk =   0.0009103
        k(  325) = (  -0.0000000   0.1087857  -0.2175713), wk =   0.0009103
        k(  326) = (   0.0000000   0.1087857  -0.1087857), wk =   0.0009103
        k(  327) = (  -0.0543928   0.1631785  -0.0543928), wk =   0.0009103
        k(  328) = (  -0.1087857   0.2175713   0.0000000), wk =   0.0009103
        k(  329) = (  -0.1631785   0.2719641   0.0543928), wk =   0.0009103
        k(  330) = (  -0.2175713   0.3263570   0.1087857), wk =   0.0009103
        k(  331) = (  -0.2719641   0.3807498   0.1631785), wk =   0.0009103
        k(  332) = (  -0.3263570   0.4351426   0.2175713), wk =   0.0009103
        k(  333) = (   0.3263570  -0.2175713  -0.4351426), wk =   0.0009103
        k(  334) = (   0.2719641  -0.1631785  -0.3807498), wk =   0.0009103
        k(  335) = (   0.2175713  -0.1087857  -0.3263570), wk =   0.0009103
        k(  336) = (   0.1631785  -0.0543928  -0.2719641), wk =   0.0009103
        k(  337) = (   0.1087857  -0.0000000  -0.2175713), wk =   0.0009103
        k(  338) = (   0.0543928   0.0543928  -0.1631785), wk =   0.0009103
        k(  339) = (   0.1087857   0.1087857  -0.1087857), wk =   0.0009103
        k(  340) = (   0.0543928   0.1631785  -0.0543928), wk =   0.0009103
        k(  341) = (   0.0000000   0.2175713   0.0000000), wk =   0.0009103
        k(  342) = (  -0.0543928   0.2719641   0.0543928), wk =   0.0009103
        k(  343) = (  -0.1087857   0.3263570   0.1087857), wk =   0.0009103
        k(  344) = (  -0.1631785   0.3807498   0.1631785), wk =   0.0009103
        k(  345) = (  -0.2175713   0.4351426   0.2175713), wk =   0.0009103
        k(  346) = (   0.4351426  -0.2175713  -0.4351426), wk =   0.0009103
        k(  347) = (   0.3807498  -0.1631785  -0.3807498), wk =   0.0009103
        k(  348) = (   0.3263570  -0.1087857  -0.3263570), wk =   0.0009103
        k(  349) = (   0.2719641  -0.0543928  -0.2719641), wk =   0.0009103
        k(  350) = (   0.2175713   0.0000000  -0.2175713), wk =   0.0009103
        k(  351) = (   0.1631785   0.0543928  -0.1631785), wk =   0.0009103
        k(  352) = (   0.1631785   0.0543928  -0.0543928), wk =   0.0009103
        k(  353) = (   0.1087857   0.1087857   0.0000000), wk =   0.0009103
        k(  354) = (   0.0543928   0.1631785   0.0543928), wk =   0.0009103
        k(  355) = (   0.0000000   0.2175713   0.1087857), wk =   0.0009103
        k(  356) = (  -0.0543928   0.2719641   0.1631785), wk =   0.0009103
        k(  357) = (  -0.1087857   0.3263570   0.2175713), wk =   0.0009103
        k(  358) = (  -0.1631785   0.3807498   0.2719641), wk =   0.0009103
        k(  359) = (   0.4895355  -0.2719641  -0.3807498), wk =   0.0009103
        k(  360) = (   0.4351426  -0.2175713  -0.3263570), wk =   0.0009103
        k(  361) = (   0.3807498  -0.1631785  -0.2719641), wk =   0.0009103
        k(  362) = (   0.3263570  -0.1087857  -0.2175713), wk =   0.0009103
        k(  363) = (   0.2719641  -0.0543928  -0.1631785), wk =   0.0009103
        k(  364) = (   0.2175713   0.0000000  -0.1087857), wk =   0.0009103
        k(  365) = (   0.2175713   0.0000000   0.0000000), wk =   0.0009103
        k(  366) = (   0.1631785   0.0543928   0.0543928), wk =   0.0009103
        k(  367) = (   0.1087857   0.1087857   0.1087857), wk =   0.0009103
        k(  368) = (   0.0543928   0.1631785   0.1631785), wk =   0.0009103
        k(  369) = (   0.0000000   0.2175713   0.2175713), wk =   0.0009103
        k(  370) = (  -0.0543928   0.2719641   0.2719641), wk =   0.0009103
        k(  371) = (  -0.1087857   0.3263570   0.3263570), wk =   0.0009103
        k(  372) = (   0.5439283  -0.3263570  -0.3263570), wk =   0.0009103
        k(  373) = (   0.4895355  -0.2719641  -0.2719641), wk =   0.0009103
        k(  374) = (   0.4351426  -0.2175713  -0.2175713), wk =   0.0009103
        k(  375) = (   0.3807498  -0.1631785  -0.1631785), wk =   0.0009103
        k(  376) = (   0.3263570  -0.1087857  -0.1087857), wk =   0.0009103
        k(  377) = (   0.2719641  -0.0543928  -0.0543928), wk =   0.0009103
        k(  378) = (   0.2719641  -0.0543928   0.0543928), wk =   0.0009103
        k(  379) = (   0.2175713  -0.0000000   0.1087857), wk =   0.0009103
        k(  380) = (   0.1631785   0.0543928   0.1631785), wk =   0.0009103
        k(  381) = (   0.1087857   0.1087857   0.2175713), wk =   0.0009103
        k(  382) = (   0.0543928   0.1631785   0.2719641), wk =   0.0009103
        k(  383) = (   0.0000000   0.2175713   0.3263570), wk =   0.0009103
        k(  384) = (  -0.0543928   0.2719641   0.3807498), wk =   0.0009103
        k(  385) = (   0.5983211  -0.3807498  -0.2719641), wk =   0.0009103
        k(  386) = (   0.5439283  -0.3263570  -0.2175713), wk =   0.0009103
        k(  387) = (   0.4895355  -0.2719641  -0.1631785), wk =   0.0009103
        k(  388) = (   0.4351426  -0.2175713  -0.1087857), wk =   0.0009103
        k(  389) = (   0.3807498  -0.1631785  -0.0543928), wk =   0.0009103
        k(  390) = (   0.3263570  -0.1087857   0.0000000), wk =   0.0009103
        k(  391) = (   0.3263570  -0.1087857   0.1087857), wk =   0.0009103
        k(  392) = (   0.2719641  -0.0543928   0.1631785), wk =   0.0009103
        k(  393) = (   0.2175713   0.0000000   0.2175713), wk =   0.0009103
        k(  394) = (   0.1631785   0.0543928   0.2719641), wk =   0.0009103
        k(  395) = (   0.1087857   0.1087857   0.3263570), wk =   0.0009103
        k(  396) = (   0.0543928   0.1631785   0.3807498), wk =   0.0009103
        k(  397) = (   0.0000000   0.2175713   0.4351426), wk =   0.0009103
        k(  398) = (   0.6527140  -0.4351426  -0.2175713), wk =   0.0009103
        k(  399) = (   0.5983211  -0.3807498  -0.1631785), wk =   0.0009103
        k(  400) = (   0.5439283  -0.3263570  -0.1087857), wk =   0.0009103
        k(  401) = (   0.4895355  -0.2719641  -0.0543928), wk =   0.0009103
        k(  402) = (   0.4351426  -0.2175713   0.0000000), wk =   0.0009103
        k(  403) = (   0.3807498  -0.1631785   0.0543928), wk =   0.0009103
        k(  404) = (   0.3807498  -0.1631785   0.1631785), wk =   0.0009103
        k(  405) = (   0.3263570  -0.1087857   0.2175713), wk =   0.0009103
        k(  406) = (   0.2719641  -0.0543928   0.2719641), wk =   0.0009103
        k(  407) = (   0.2175713   0.0000000   0.3263570), wk =   0.0009103
        k(  408) = (   0.1631785   0.0543928   0.3807498), wk =   0.0009103
        k(  409) = (   0.1087857   0.1087857   0.4351426), wk =   0.0009103
        k(  410) = (   0.0543928   0.1631785   0.4895355), wk =   0.0009103
        k(  411) = (   0.7071068  -0.4895355  -0.1631785), wk =   0.0009103
        k(  412) = (   0.6527140  -0.4351426  -0.1087857), wk =   0.0009103
        k(  413) = (   0.5983211  -0.3807498  -0.0543928), wk =   0.0009103
        k(  414) = (   0.5439283  -0.3263570   0.0000000), wk =   0.0009103
        k(  415) = (   0.4895355  -0.2719641   0.0543928), wk =   0.0009103
        k(  416) = (   0.4351426  -0.2175713   0.1087857), wk =   0.0009103
        k(  417) = (   0.4351426  -0.2175713   0.2175713), wk =   0.0009103
        k(  418) = (   0.3807498  -0.1631785   0.2719641), wk =   0.0009103
        k(  419) = (   0.3263570  -0.1087857   0.3263570), wk =   0.0009103
        k(  420) = (   0.2719641  -0.0543928   0.3807498), wk =   0.0009103
        k(  421) = (   0.2175713  -0.0000000   0.4351426), wk =   0.0009103
        k(  422) = (   0.1631785   0.0543928   0.4895355), wk =   0.0009103
        k(  423) = (   0.1087857   0.1087857   0.5439283), wk =   0.0009103
        k(  424) = (   0.7614996  -0.5439283  -0.1087857), wk =   0.0009103
        k(  425) = (   0.7071068  -0.4895355  -0.0543928), wk =   0.0009103
        k(  426) = (   0.6527140  -0.4351426   0.0000000), wk =   0.0009103
        k(  427) = (   0.5983211  -0.3807498   0.0543928), wk =   0.0009103
        k(  428) = (   0.5439283  -0.3263570   0.1087857), wk =   0.0009103
        k(  429) = (   0.4895355  -0.2719641   0.1631785), wk =   0.0009103
        k(  430) = (  -0.2175713   0.4351426  -0.4351426), wk =   0.0009103
        k(  431) = (  -0.2719641   0.4895355  -0.3807498), wk =   0.0009103
        k(  432) = (  -0.3263570   0.5439283  -0.3263570), wk =   0.0009103
        k(  433) = (  -0.3807498   0.5983211  -0.2719641), wk =   0.0009103
        k(  434) = (  -0.4351426   0.6527140  -0.2175713), wk =   0.0009103
        k(  435) = (  -0.4895355   0.7071068  -0.1631785), wk =   0.0009103
        k(  436) = (  -0.5439283   0.7614996  -0.1087857), wk =   0.0009103
        k(  437) = (   0.1087857   0.1087857  -0.7614996), wk =   0.0009103
        k(  438) = (   0.0543928   0.1631785  -0.7071068), wk =   0.0009103
        k(  439) = (  -0.0000000   0.2175713  -0.6527140), wk =   0.0009103
        k(  440) = (  -0.0543928   0.2719641  -0.5983211), wk =   0.0009103
        k(  441) = (  -0.1087857   0.3263570  -0.5439283), wk =   0.0009103
        k(  442) = (  -0.1631785   0.3807498  -0.4895355), wk =   0.0009103
        k(  443) = (  -0.1631785   0.3807498  -0.3807498), wk =   0.0009103
        k(  444) = (  -0.2175713   0.4351426  -0.3263570), wk =   0.0009103
        k(  445) = (  -0.2719641   0.4895355  -0.2719641), wk =   0.0009103
        k(  446) = (  -0.3263570   0.5439283  -0.2175713), wk =   0.0009103
        k(  447) = (  -0.3807498   0.5983211  -0.1631785), wk =   0.0009103
        k(  448) = (  -0.4351426   0.6527140  -0.1087857), wk =   0.0009103
        k(  449) = (  -0.4895355   0.7071068  -0.0543928), wk =   0.0009103
        k(  450) = (   0.1631785   0.0543928  -0.7071068), wk =   0.0009103
        k(  451) = (   0.1087857   0.1087857  -0.6527140), wk =   0.0009103
        k(  452) = (   0.0543928   0.1631785  -0.5983211), wk =   0.0009103
        k(  453) = (   0.0000000   0.2175713  -0.5439283), wk =   0.0009103
        k(  454) = (  -0.0543928   0.2719641  -0.4895355), wk =   0.0009103
        k(  455) = (  -0.1087857   0.3263570  -0.4351426), wk =   0.0009103
        k(  456) = (  -0.1087857   0.3263570  -0.3263570), wk =   0.0009103
        k(  457) = (  -0.1631785   0.3807498  -0.2719641), wk =   0.0009103
        k(  458) = (  -0.2175713   0.4351426  -0.2175713), wk =   0.0009103
        k(  459) = (  -0.2719641   0.4895355  -0.1631785), wk =   0.0009103
        k(  460) = (  -0.3263570   0.5439283  -0.1087857), wk =   0.0009103
        k(  461) = (  -0.3807498   0.5983211  -0.0543928), wk =   0.0009103
        k(  462) = (  -0.4351426   0.6527140   0.0000000), wk =   0.0009103
        k(  463) = (   0.2175713   0.0000000  -0.6527140), wk =   0.0009103
        k(  464) = (   0.1631785   0.0543928  -0.5983211), wk =   0.0009103
        k(  465) = (   0.1087857   0.1087857  -0.5439283), wk =   0.0009103
        k(  466) = (   0.0543928   0.1631785  -0.4895355), wk =   0.0009103
        k(  467) = (   0.0000000   0.2175713  -0.4351426), wk =   0.0009103
        k(  468) = (  -0.0543928   0.2719641  -0.3807498), wk =   0.0009103
        k(  469) = (  -0.0543928   0.2719641  -0.2719641), wk =   0.0009103
        k(  470) = (  -0.1087857   0.3263570  -0.2175713), wk =   0.0009103
        k(  471) = (  -0.1631785   0.3807498  -0.1631785), wk =   0.0009103
        k(  472) = (  -0.2175713   0.4351426  -0.1087857), wk =   0.0009103
        k(  473) = (  -0.2719641   0.4895355  -0.0543928), wk =   0.0009103
        k(  474) = (  -0.3263570   0.5439283   0.0000000), wk =   0.0009103
        k(  475) = (  -0.3807498   0.5983211   0.0543928), wk =   0.0009103
        k(  476) = (   0.2719641  -0.0543928  -0.5983211), wk =   0.0009103
        k(  477) = (   0.2175713   0.0000000  -0.5439283), wk =   0.0009103
        k(  478) = (   0.1631785   0.0543928  -0.4895355), wk =   0.0009103
        k(  479) = (   0.1087857   0.1087857  -0.4351426), wk =   0.0009103
        k(  480) = (   0.0543928   0.1631785  -0.3807498), wk =   0.0009103
        k(  481) = (   0.0000000   0.2175713  -0.3263570), wk =   0.0009103
        k(  482) = (   0.0000000   0.2175713  -0.2175713), wk =   0.0009103
        k(  483) = (  -0.0543928   0.2719641  -0.1631785), wk =   0.0009103
        k(  484) = (  -0.1087857   0.3263570  -0.1087857), wk =   0.0009103
        k(  485) = (  -0.1631785   0.3807498  -0.0543928), wk =   0.0009103
        k(  486) = (  -0.2175713   0.4351426   0.0000000), wk =   0.0009103
        k(  487) = (  -0.2719641   0.4895355   0.0543928), wk =   0.0009103
        k(  488) = (  -0.3263570   0.5439283   0.1087857), wk =   0.0009103
        k(  489) = (   0.3263570  -0.1087857  -0.5439283), wk =   0.0009103
        k(  490) = (   0.2719641  -0.0543928  -0.4895355), wk =   0.0009103
        k(  491) = (   0.2175713   0.0000000  -0.4351426), wk =   0.0009103
        k(  492) = (   0.1631785   0.0543928  -0.3807498), wk =   0.0009103
        k(  493) = (   0.1087857   0.1087857  -0.3263570), wk =   0.0009103
        k(  494) = (   0.0543928   0.1631785  -0.2719641), wk =   0.0009103
        k(  495) = (   0.0543928   0.1631785  -0.1631785), wk =   0.0009103
        k(  496) = (   0.0000000   0.2175713  -0.1087857), wk =   0.0009103
        k(  497) = (  -0.0543928   0.2719641  -0.0543928), wk =   0.0009103
        k(  498) = (  -0.1087857   0.3263570   0.0000000), wk =   0.0009103
        k(  499) = (  -0.1631785   0.3807498   0.0543928), wk =   0.0009103
        k(  500) = (  -0.2175713   0.4351426   0.1087857), wk =   0.0009103
        k(  501) = (  -0.2719641   0.4895355   0.1631785), wk =   0.0009103
        k(  502) = (   0.3807498  -0.1631785  -0.4895355), wk =   0.0009103
        k(  503) = (   0.3263570  -0.1087857  -0.4351426), wk =   0.0009103
        k(  504) = (   0.2719641  -0.0543928  -0.3807498), wk =   0.0009103
        k(  505) = (   0.2175713   0.0000000  -0.3263570), wk =   0.0009103
        k(  506) = (   0.1631785   0.0543928  -0.2719641), wk =   0.0009103
        k(  507) = (   0.1087857   0.1087857  -0.2175713), wk =   0.0009103
        k(  508) = (   0.1631785   0.1631785  -0.1631785), wk =   0.0009103
        k(  509) = (   0.1087857   0.2175713  -0.1087857), wk =   0.0009103
        k(  510) = (   0.0543928   0.2719641  -0.0543928), wk =   0.0009103
        k(  511) = (   0.0000000   0.3263570   0.0000000), wk =   0.0009103
        k(  512) = (  -0.0543928   0.3807498   0.0543928), wk =   0.0009103
        k(  513) = (  -0.1087857   0.4351426   0.1087857), wk =   0.0009103
        k(  514) = (  -0.1631785   0.4895355   0.1631785), wk =   0.0009103
        k(  515) = (   0.4895355  -0.1631785  -0.4895355), wk =   0.0009103
        k(  516) = (   0.4351426  -0.1087857  -0.4351426), wk =   0.0009103
        k(  517) = (   0.3807498  -0.0543928  -0.3807498), wk =   0.0009103
        k(  518) = (   0.3263570   0.0000000  -0.3263570), wk =   0.0009103
        k(  519) = (   0.2719641   0.0543928  -0.2719641), wk =   0.0009103
        k(  520) = (   0.2175713   0.1087857  -0.2175713), wk =   0.0009103
        k(  521) = (   0.2175713   0.1087857  -0.1087857), wk =   0.0009103
        k(  522) = (   0.1631785   0.1631785  -0.0543928), wk =   0.0009103
        k(  523) = (   0.1087857   0.2175713  -0.0000000), wk =   0.0009103
        k(  524) = (   0.0543928   0.2719641   0.0543928), wk =   0.0009103
        k(  525) = (   0.0000000   0.3263570   0.1087857), wk =   0.0009103
        k(  526) = (  -0.0543928   0.3807498   0.1631785), wk =   0.0009103
        k(  527) = (  -0.1087857   0.4351426   0.2175713), wk =   0.0009103
        k(  528) = (   0.5439283  -0.2175713  -0.4351426), wk =   0.0009103
        k(  529) = (   0.4895355  -0.1631785  -0.3807498), wk =   0.0009103
        k(  530) = (   0.4351426  -0.1087857  -0.3263570), wk =   0.0009103
        k(  531) = (   0.3807498  -0.0543928  -0.2719641), wk =   0.0009103
        k(  532) = (   0.3263570   0.0000000  -0.2175713), wk =   0.0009103
        k(  533) = (   0.2719641   0.0543928  -0.1631785), wk =   0.0009103
        k(  534) = (   0.2719641   0.0543928  -0.0543928), wk =   0.0009103
        k(  535) = (   0.2175713   0.1087857  -0.0000000), wk =   0.0009103
        k(  536) = (   0.1631785   0.1631785   0.0543928), wk =   0.0009103
        k(  537) = (   0.1087857   0.2175713   0.1087857), wk =   0.0009103
        k(  538) = (   0.0543928   0.2719641   0.1631785), wk =   0.0009103
        k(  539) = (   0.0000000   0.3263570   0.2175713), wk =   0.0009103
        k(  540) = (  -0.0543928   0.3807498   0.2719641), wk =   0.0009103
        k(  541) = (   0.5983211  -0.2719641  -0.3807498), wk =   0.0009103
        k(  542) = (   0.5439283  -0.2175713  -0.3263570), wk =   0.0009103
        k(  543) = (   0.4895355  -0.1631785  -0.2719641), wk =   0.0009103
        k(  544) = (   0.4351426  -0.1087857  -0.2175713), wk =   0.0009103
        k(  545) = (   0.3807498  -0.0543928  -0.1631785), wk =   0.0009103
        k(  546) = (   0.3263570   0.0000000  -0.1087857), wk =   0.0009103
        k(  547) = (   0.3263570   0.0000000   0.0000000), wk =   0.0009103
        k(  548) = (   0.2719641   0.0543928   0.0543928), wk =   0.0009103
        k(  549) = (   0.2175713   0.1087857   0.1087857), wk =   0.0009103
        k(  550) = (   0.1631785   0.1631785   0.1631785), wk =   0.0009103
        k(  551) = (   0.1087857   0.2175713   0.2175713), wk =   0.0009103
        k(  552) = (   0.0543928   0.2719641   0.2719641), wk =   0.0009103
        k(  553) = (   0.0000000   0.3263570   0.3263570), wk =   0.0009103
        k(  554) = (   0.6527140  -0.3263570  -0.3263570), wk =   0.0009103
        k(  555) = (   0.5983211  -0.2719641  -0.2719641), wk =   0.0009103
        k(  556) = (   0.5439283  -0.2175713  -0.2175713), wk =   0.0009103
        k(  557) = (   0.4895355  -0.1631785  -0.1631785), wk =   0.0009103
        k(  558) = (   0.4351426  -0.1087857  -0.1087857), wk =   0.0009103
        k(  559) = (   0.3807498  -0.0543928  -0.0543928), wk =   0.0009103
        k(  560) = (   0.3807498  -0.0543928   0.0543928), wk =   0.0009103
        k(  561) = (   0.3263570   0.0000000   0.1087857), wk =   0.0009103
        k(  562) = (   0.2719641   0.0543928   0.1631785), wk =   0.0009103
        k(  563) = (   0.2175713   0.1087857   0.2175713), wk =   0.0009103
        k(  564) = (   0.1631785   0.1631785   0.2719641), wk =   0.0009103
        k(  565) = (   0.1087857   0.2175713   0.3263570), wk =   0.0009103
        k(  566) = (   0.0543928   0.2719641   0.3807498), wk =   0.0009103
        k(  567) = (   0.7071068  -0.3807498  -0.2719641), wk =   0.0009103
        k(  568) = (   0.6527140  -0.3263570  -0.2175713), wk =   0.0009103
        k(  569) = (   0.5983211  -0.2719641  -0.1631785), wk =   0.0009103
        k(  570) = (   0.5439283  -0.2175713  -0.1087857), wk =   0.0009103
        k(  571) = (   0.4895355  -0.1631785  -0.0543928), wk =   0.0009103
        k(  572) = (   0.4351426  -0.1087857   0.0000000), wk =   0.0009103
        k(  573) = (   0.4351426  -0.1087857   0.1087857), wk =   0.0009103
        k(  574) = (   0.3807498  -0.0543928   0.1631785), wk =   0.0009103
        k(  575) = (   0.3263570   0.0000000   0.2175713), wk =   0.0009103
        k(  576) = (   0.2719641   0.0543928   0.2719641), wk =   0.0009103
        k(  577) = (   0.2175713   0.1087857   0.3263570), wk =   0.0009103
        k(  578) = (   0.1631785   0.1631785   0.3807498), wk =   0.0009103
        k(  579) = (   0.1087857   0.2175713   0.4351426), wk =   0.0009103
        k(  580) = (   0.7614996  -0.4351426  -0.2175713), wk =   0.0009103
        k(  581) = (   0.7071068  -0.3807498  -0.1631785), wk =   0.0009103
        k(  582) = (   0.6527140  -0.3263570  -0.1087857), wk =   0.0009103
        k(  583) = (   0.5983211  -0.2719641  -0.0543928), wk =   0.0009103
        k(  584) = (   0.5439283  -0.2175713  -0.0000000), wk =   0.0009103
        k(  585) = (   0.4895355  -0.1631785   0.0543928), wk =   0.0009103
        k(  586) = (   0.4895355  -0.1631785   0.1631785), wk =   0.0009103
        k(  587) = (   0.4351426  -0.1087857   0.2175713), wk =   0.0009103
        k(  588) = (   0.3807498  -0.0543928   0.2719641), wk =   0.0009103
        k(  589) = (   0.3263570   0.0000000   0.3263570), wk =   0.0009103
        k(  590) = (   0.2719641   0.0543928   0.3807498), wk =   0.0009103
        k(  591) = (   0.2175713   0.1087857   0.4351426), wk =   0.0009103
        k(  592) = (   0.1631785   0.1631785   0.4895355), wk =   0.0009103
        k(  593) = (   0.8158924  -0.4895355  -0.1631785), wk =   0.0009103
        k(  594) = (   0.7614996  -0.4351426  -0.1087857), wk =   0.0009103
        k(  595) = (   0.7071068  -0.3807498  -0.0543928), wk =   0.0009103
        k(  596) = (   0.6527140  -0.3263570   0.0000000), wk =   0.0009103
        k(  597) = (   0.5983211  -0.2719641   0.0543928), wk =   0.0009103
        k(  598) = (   0.5439283  -0.2175713   0.1087857), wk =   0.0009103
        k(  599) = (  -0.1631785   0.4895355  -0.4895355), wk =   0.0009103
        k(  600) = (  -0.2175713   0.5439283  -0.4351426), wk =   0.0009103
        k(  601) = (  -0.2719641   0.5983211  -0.3807498), wk =   0.0009103
        k(  602) = (  -0.3263570   0.6527140  -0.3263570), wk =   0.0009103
        k(  603) = (  -0.3807498   0.7071068  -0.2719641), wk =   0.0009103
        k(  604) = (  -0.4351426   0.7614996  -0.2175713), wk =   0.0009103
        k(  605) = (  -0.4895355   0.8158924  -0.1631785), wk =   0.0009103
        k(  606) = (   0.1631785   0.1631785  -0.8158924), wk =   0.0009103
        k(  607) = (   0.1087857   0.2175713  -0.7614996), wk =   0.0009103
        k(  608) = (   0.0543928   0.2719641  -0.7071068), wk =   0.0009103
        k(  609) = (  -0.0000000   0.3263570  -0.6527140), wk =   0.0009103
        k(  610) = (  -0.0543928   0.3807498  -0.5983211), wk =   0.0009103
        k(  611) = (  -0.1087857   0.4351426  -0.5439283), wk =   0.0009103
        k(  612) = (  -0.1087857   0.4351426  -0.4351426), wk =   0.0009103
        k(  613) = (  -0.1631785   0.4895355  -0.3807498), wk =   0.0009103
        k(  614) = (  -0.2175713   0.5439283  -0.3263570), wk =   0.0009103
        k(  615) = (  -0.2719641   0.5983211  -0.2719641), wk =   0.0009103
        k(  616) = (  -0.3263570   0.6527140  -0.2175713), wk =   0.0009103
        k(  617) = (  -0.3807498   0.7071068  -0.1631785), wk =   0.0009103
        k(  618) = (  -0.4351426   0.7614996  -0.1087857), wk =   0.0009103
        k(  619) = (   0.2175713   0.1087857  -0.7614996), wk =   0.0009103
        k(  620) = (   0.1631785   0.1631785  -0.7071068), wk =   0.0009103
        k(  621) = (   0.1087857   0.2175713  -0.6527140), wk =   0.0009103
        k(  622) = (   0.0543928   0.2719641  -0.5983211), wk =   0.0009103
        k(  623) = (   0.0000000   0.3263570  -0.5439283), wk =   0.0009103
        k(  624) = (  -0.0543928   0.3807498  -0.4895355), wk =   0.0009103
        k(  625) = (  -0.0543928   0.3807498  -0.3807498), wk =   0.0009103
        k(  626) = (  -0.1087857   0.4351426  -0.3263570), wk =   0.0009103
        k(  627) = (  -0.1631785   0.4895355  -0.2719641), wk =   0.0009103
        k(  628) = (  -0.2175713   0.5439283  -0.2175713), wk =   0.0009103
        k(  629) = (  -0.2719641   0.5983211  -0.1631785), wk =   0.0009103
        k(  630) = (  -0.3263570   0.6527140  -0.1087857), wk =   0.0009103
        k(  631) = (  -0.3807498   0.7071068  -0.0543928), wk =   0.0009103
        k(  632) = (   0.2719641   0.0543928  -0.7071068), wk =   0.0009103
        k(  633) = (   0.2175713   0.1087857  -0.6527140), wk =   0.0009103
        k(  634) = (   0.1631785   0.1631785  -0.5983211), wk =   0.0009103
        k(  635) = (   0.1087857   0.2175713  -0.5439283), wk =   0.0009103
        k(  636) = (   0.0543928   0.2719641  -0.4895355), wk =   0.0009103
        k(  637) = (  -0.0000000   0.3263570  -0.4351426), wk =   0.0009103
        k(  638) = (   0.0000000   0.3263570  -0.3263570), wk =   0.0009103
        k(  639) = (  -0.0543928   0.3807498  -0.2719641), wk =   0.0009103
        k(  640) = (  -0.1087857   0.4351426  -0.2175713), wk =   0.0009103
        k(  641) = (  -0.1631785   0.4895355  -0.1631785), wk =   0.0009103
        k(  642) = (  -0.2175713   0.5439283  -0.1087857), wk =   0.0009103
        k(  643) = (  -0.2719641   0.5983211  -0.0543928), wk =   0.0009103
        k(  644) = (  -0.3263570   0.6527140   0.0000000), wk =   0.0009103
        k(  645) = (   0.3263570  -0.0000000  -0.6527140), wk =   0.0009103
        k(  646) = (   0.2719641   0.0543928  -0.5983211), wk =   0.0009103
        k(  647) = (   0.2175713   0.1087857  -0.5439283), wk =   0.0009103
        k(  648) = (   0.1631785   0.1631785  -0.4895355), wk =   0.0009103
        k(  649) = (   0.1087857   0.2175713  -0.4351426), wk =   0.0009103
        k(  650) = (   0.0543928   0.2719641  -0.3807498), wk =   0.0009103
        k(  651) = (   0.0543928   0.2719641  -0.2719641), wk =   0.0009103
        k(  652) = (   0.0000000   0.3263570  -0.2175713), wk =   0.0009103
        k(  653) = (  -0.0543928   0.3807498  -0.1631785), wk =   0.0009103
        k(  654) = (  -0.1087857   0.4351426  -0.1087857), wk =   0.0009103
        k(  655) = (  -0.1631785   0.4895355  -0.0543928), wk =   0.0009103
        k(  656) = (  -0.2175713   0.5439283   0.0000000), wk =   0.0009103
        k(  657) = (  -0.2719641   0.5983211   0.0543928), wk =   0.0009103
        k(  658) = (   0.3807498  -0.0543928  -0.5983211), wk =   0.0009103
        k(  659) = (   0.3263570   0.0000000  -0.5439283), wk =   0.0009103
        k(  660) = (   0.2719641   0.0543928  -0.4895355), wk =   0.0009103
        k(  661) = (   0.2175713   0.1087857  -0.4351426), wk =   0.0009103
        k(  662) = (   0.1631785   0.1631785  -0.3807498), wk =   0.0009103
        k(  663) = (   0.1087857   0.2175713  -0.3263570), wk =   0.0009103
        k(  664) = (   0.1087857   0.2175713  -0.2175713), wk =   0.0009103
        k(  665) = (   0.0543928   0.2719641  -0.1631785), wk =   0.0009103
        k(  666) = (   0.0000000   0.3263570  -0.1087857), wk =   0.0009103
        k(  667) = (  -0.0543928   0.3807498  -0.0543928), wk =   0.0009103
        k(  668) = (  -0.1087857   0.4351426   0.0000000), wk =   0.0009103
        k(  669) = (  -0.1631785   0.4895355   0.0543928), wk =   0.0009103
        k(  670) = (  -0.2175713   0.5439283   0.1087857), wk =   0.0009103
        k(  671) = (   0.4351426  -0.1087857  -0.5439283), wk =   0.0009103
        k(  672) = (   0.3807498  -0.0543928  -0.4895355), wk =   0.0009103
        k(  673) = (   0.3263570  -0.0000000  -0.4351426), wk =   0.0009103
        k(  674) = (   0.2719641   0.0543928  -0.3807498), wk =   0.0009103
        k(  675) = (   0.2175713   0.1087857  -0.3263570), wk =   0.0009103
        k(  676) = (   0.1631785   0.1631785  -0.2719641), wk =   0.0009103
        k(  677) = (   0.2175713   0.2175713  -0.2175713), wk =   0.0009103
        k(  678) = (   0.1631785   0.2719641  -0.1631785), wk =   0.0009103
        k(  679) = (   0.1087857   0.3263570  -0.1087857), wk =   0.0009103
        k(  680) = (   0.0543928   0.3807498  -0.0543928), wk =   0.0009103
        k(  681) = (   0.0000000   0.4351426   0.0000000), wk =   0.0009103
        k(  682) = (  -0.0543928   0.4895355   0.0543928), wk =   0.0009103
        k(  683) = (  -0.1087857   0.5439283   0.1087857), wk =   0.0009103
        k(  684) = (   0.5439283  -0.1087857  -0.5439283), wk =   0.0009103
        k(  685) = (   0.4895355  -0.0543928  -0.4895355), wk =   0.0009103
        k(  686) = (   0.4351426   0.0000000  -0.4351426), wk =   0.0009103
        k(  687) = (   0.3807498   0.0543928  -0.3807498), wk =   0.0009103
        k(  688) = (   0.3263570   0.1087857  -0.3263570), wk =   0.0009103
        k(  689) = (   0.2719641   0.1631785  -0.2719641), wk =   0.0009103
        k(  690) = (   0.2719641   0.1631785  -0.1631785), wk =   0.0009103
        k(  691) = (   0.2175713   0.2175713  -0.1087857), wk =   0.0009103
        k(  692) = (   0.1631785   0.2719641  -0.0543928), wk =   0.0009103
        k(  693) = (   0.1087857   0.3263570   0.0000000), wk =   0.0009103
        k(  694) = (   0.0543928   0.3807498   0.0543928), wk =   0.0009103
        k(  695) = (   0.0000000   0.4351426   0.1087857), wk =   0.0009103
        k(  696) = (  -0.0543928   0.4895355   0.1631785), wk =   0.0009103
        k(  697) = (   0.5983211  -0.1631785  -0.4895355), wk =   0.0009103
        k(  698) = (   0.5439283  -0.1087857  -0.4351426), wk =   0.0009103
        k(  699) = (   0.4895355  -0.0543928  -0.3807498), wk =   0.0009103
        k(  700) = (   0.4351426   0.0000000  -0.3263570), wk =   0.0009103
        k(  701) = (   0.3807498   0.0543928  -0.2719641), wk =   0.0009103
        k(  702) = (   0.3263570   0.1087857  -0.2175713), wk =   0.0009103
        k(  703) = (   0.3263570   0.1087857  -0.1087857), wk =   0.0009103
        k(  704) = (   0.2719641   0.1631785  -0.0543928), wk =   0.0009103
        k(  705) = (   0.2175713   0.2175713   0.0000000), wk =   0.0009103
        k(  706) = (   0.1631785   0.2719641   0.0543928), wk =   0.0009103
        k(  707) = (   0.1087857   0.3263570   0.1087857), wk =   0.0009103
        k(  708) = (   0.0543928   0.3807498   0.1631785), wk =   0.0009103
        k(  709) = (   0.0000000   0.4351426   0.2175713), wk =   0.0009103
        k(  710) = (   0.6527140  -0.2175713  -0.4351426), wk =   0.0009103
        k(  711) = (   0.5983211  -0.1631785  -0.3807498), wk =   0.0009103
        k(  712) = (   0.5439283  -0.1087857  -0.3263570), wk =   0.0009103
        k(  713) = (   0.4895355  -0.0543928  -0.2719641), wk =   0.0009103
        k(  714) = (   0.4351426   0.0000000  -0.2175713), wk =   0.0009103
        k(  715) = (   0.3807498   0.0543928  -0.1631785), wk =   0.0009103
        k(  716) = (   0.3807498   0.0543928  -0.0543928), wk =   0.0009103
        k(  717) = (   0.3263570   0.1087857   0.0000000), wk =   0.0009103
        k(  718) = (   0.2719641   0.1631785   0.0543928), wk =   0.0009103
        k(  719) = (   0.2175713   0.2175713   0.1087857), wk =   0.0009103
        k(  720) = (   0.1631785   0.2719641   0.1631785), wk =   0.0009103
        k(  721) = (   0.1087857   0.3263570   0.2175713), wk =   0.0009103
        k(  722) = (   0.0543928   0.3807498   0.2719641), wk =   0.0009103
        k(  723) = (   0.7071068  -0.2719641  -0.3807498), wk =   0.0009103
        k(  724) = (   0.6527140  -0.2175713  -0.3263570), wk =   0.0009103
        k(  725) = (   0.5983211  -0.1631785  -0.2719641), wk =   0.0009103
        k(  726) = (   0.5439283  -0.1087857  -0.2175713), wk =   0.0009103
        k(  727) = (   0.4895355  -0.0543928  -0.1631785), wk =   0.0009103
        k(  728) = (   0.4351426   0.0000000  -0.1087857), wk =   0.0009103
        k(  729) = (   0.4351426   0.0000000   0.0000000), wk =   0.0009103
        k(  730) = (   0.3807498   0.0543928   0.0543928), wk =   0.0009103
        k(  731) = (   0.3263570   0.1087857   0.1087857), wk =   0.0009103
        k(  732) = (   0.2719641   0.1631785   0.1631785), wk =   0.0009103
        k(  733) = (   0.2175713   0.2175713   0.2175713), wk =   0.0009103
        k(  734) = (   0.1631785   0.2719641   0.2719641), wk =   0.0009103
        k(  735) = (   0.1087857   0.3263570   0.3263570), wk =   0.0009103
        k(  736) = (   0.7614996  -0.3263570  -0.3263570), wk =   0.0009103
        k(  737) = (   0.7071068  -0.2719641  -0.2719641), wk =   0.0009103
        k(  738) = (   0.6527140  -0.2175713  -0.2175713), wk =   0.0009103
        k(  739) = (   0.5983211  -0.1631785  -0.1631785), wk =   0.0009103
        k(  740) = (   0.5439283  -0.1087857  -0.1087857), wk =   0.0009103
        k(  741) = (   0.4895355  -0.0543928  -0.0543928), wk =   0.0009103
        k(  742) = (   0.4895355  -0.0543928   0.0543928), wk =   0.0009103
        k(  743) = (   0.4351426   0.0000000   0.1087857), wk =   0.0009103
        k(  744) = (   0.3807498   0.0543928   0.1631785), wk =   0.0009103
        k(  745) = (   0.3263570   0.1087857   0.2175713), wk =   0.0009103
        k(  746) = (   0.2719641   0.1631785   0.2719641), wk =   0.0009103
        k(  747) = (   0.2175713   0.2175713   0.3263570), wk =   0.0009103
        k(  748) = (   0.1631785   0.2719641   0.3807498), wk =   0.0009103
        k(  749) = (   0.8158924  -0.3807498  -0.2719641), wk =   0.0009103
        k(  750) = (   0.7614996  -0.3263570  -0.2175713), wk =   0.0009103
        k(  751) = (   0.7071068  -0.2719641  -0.1631785), wk =   0.0009103
        k(  752) = (   0.6527140  -0.2175713  -0.1087857), wk =   0.0009103
        k(  753) = (   0.5983211  -0.1631785  -0.0543928), wk =   0.0009103
        k(  754) = (   0.5439283  -0.1087857   0.0000000), wk =   0.0009103
        k(  755) = (   0.5439283  -0.1087857   0.1087857), wk =   0.0009103
        k(  756) = (   0.4895355  -0.0543928   0.1631785), wk =   0.0009103
        k(  757) = (   0.4351426  -0.0000000   0.2175713), wk =   0.0009103
        k(  758) = (   0.3807498   0.0543928   0.2719641), wk =   0.0009103
        k(  759) = (   0.3263570   0.1087857   0.3263570), wk =   0.0009103
        k(  760) = (   0.2719641   0.1631785   0.3807498), wk =   0.0009103
        k(  761) = (   0.2175713   0.2175713   0.4351426), wk =   0.0009103
        k(  762) = (   0.8702853  -0.4351426  -0.2175713), wk =   0.0009103
        k(  763) = (   0.8158924  -0.3807498  -0.1631785), wk =   0.0009103
        k(  764) = (   0.7614996  -0.3263570  -0.1087857), wk =   0.0009103
        k(  765) = (   0.7071068  -0.2719641  -0.0543928), wk =   0.0009103
        k(  766) = (   0.6527140  -0.2175713   0.0000000), wk =   0.0009103
        k(  767) = (   0.5983211  -0.1631785   0.0543928), wk =   0.0009103
        k(  768) = (  -0.1087857   0.5439283  -0.5439283), wk =   0.0009103
        k(  769) = (  -0.1631785   0.5983211  -0.4895355), wk =   0.0009103
        k(  770) = (  -0.2175713   0.6527140  -0.4351426), wk =   0.0009103
        k(  771) = (  -0.2719641   0.7071068  -0.3807498), wk =   0.0009103
        k(  772) = (  -0.3263570   0.7614996  -0.3263570), wk =   0.0009103
        k(  773) = (  -0.3807498   0.8158924  -0.2719641), wk =   0.0009103
        k(  774) = (  -0.4351426   0.8702853  -0.2175713), wk =   0.0009103
        k(  775) = (   0.2175713   0.2175713  -0.8702853), wk =   0.0009103
        k(  776) = (   0.1631785   0.2719641  -0.8158924), wk =   0.0009103
        k(  777) = (   0.1087857   0.3263570  -0.7614996), wk =   0.0009103
        k(  778) = (   0.0543928   0.3807498  -0.7071068), wk =   0.0009103
        k(  779) = (  -0.0000000   0.4351426  -0.6527140), wk =   0.0009103
        k(  780) = (  -0.0543928   0.4895355  -0.5983211), wk =   0.0009103
        k(  781) = (  -0.0543928   0.4895355  -0.4895355), wk =   0.0009103
        k(  782) = (  -0.1087857   0.5439283  -0.4351426), wk =   0.0009103
        k(  783) = (  -0.1631785   0.5983211  -0.3807498), wk =   0.0009103
        k(  784) = (  -0.2175713   0.6527140  -0.3263570), wk =   0.0009103
        k(  785) = (  -0.2719641   0.7071068  -0.2719641), wk =   0.0009103
        k(  786) = (  -0.3263570   0.7614996  -0.2175713), wk =   0.0009103
        k(  787) = (  -0.3807498   0.8158924  -0.1631785), wk =   0.0009103
        k(  788) = (   0.2719641   0.1631785  -0.8158924), wk =   0.0009103
        k(  789) = (   0.2175713   0.2175713  -0.7614996), wk =   0.0009103
        k(  790) = (   0.1631785   0.2719641  -0.7071068), wk =   0.0009103
        k(  791) = (   0.1087857   0.3263570  -0.6527140), wk =   0.0009103
        k(  792) = (   0.0543928   0.3807498  -0.5983211), wk =   0.0009103
        k(  793) = (   0.0000000   0.4351426  -0.5439283), wk =   0.0009103
        k(  794) = (   0.0000000   0.4351426  -0.4351426), wk =   0.0009103
        k(  795) = (  -0.0543928   0.4895355  -0.3807498), wk =   0.0009103
        k(  796) = (  -0.1087857   0.5439283  -0.3263570), wk =   0.0009103
        k(  797) = (  -0.1631785   0.5983211  -0.2719641), wk =   0.0009103
        k(  798) = (  -0.2175713   0.6527140  -0.2175713), wk =   0.0009103
        k(  799) = (  -0.2719641   0.7071068  -0.1631785), wk =   0.0009103
        k(  800) = (  -0.3263570   0.7614996  -0.1087857), wk =   0.0009103
        k(  801) = (   0.3263570   0.1087857  -0.7614996), wk =   0.0009103
        k(  802) = (   0.2719641   0.1631785  -0.7071068), wk =   0.0009103
        k(  803) = (   0.2175713   0.2175713  -0.6527140), wk =   0.0009103
        k(  804) = (   0.1631785   0.2719641  -0.5983211), wk =   0.0009103
        k(  805) = (   0.1087857   0.3263570  -0.5439283), wk =   0.0009103
        k(  806) = (   0.0543928   0.3807498  -0.4895355), wk =   0.0009103
        k(  807) = (   0.0543928   0.3807498  -0.3807498), wk =   0.0009103
        k(  808) = (   0.0000000   0.4351426  -0.3263570), wk =   0.0009103
        k(  809) = (  -0.0543928   0.4895355  -0.2719641), wk =   0.0009103
        k(  810) = (  -0.1087857   0.5439283  -0.2175713), wk =   0.0009103
        k(  811) = (  -0.1631785   0.5983211  -0.1631785), wk =   0.0009103
        k(  812) = (  -0.2175713   0.6527140  -0.1087857), wk =   0.0009103
        k(  813) = (  -0.2719641   0.7071068  -0.0543928), wk =   0.0009103
        k(  814) = (   0.3807498   0.0543928  -0.7071068), wk =   0.0009103
        k(  815) = (   0.3263570   0.1087857  -0.6527140), wk =   0.0009103
        k(  816) = (   0.2719641   0.1631785  -0.5983211), wk =   0.0009103
        k(  817) = (   0.2175713   0.2175713  -0.5439283), wk =   0.0009103
        k(  818) = (   0.1631785   0.2719641  -0.4895355), wk =   0.0009103
        k(  819) = (   0.1087857   0.3263570  -0.4351426), wk =   0.0009103
        k(  820) = (   0.1087857   0.3263570  -0.3263570), wk =   0.0009103
        k(  821) = (   0.0543928   0.3807498  -0.2719641), wk =   0.0009103
        k(  822) = (   0.0000000   0.4351426  -0.2175713), wk =   0.0009103
        k(  823) = (  -0.0543928   0.4895355  -0.1631785), wk =   0.0009103
        k(  824) = (  -0.1087857   0.5439283  -0.1087857), wk =   0.0009103
        k(  825) = (  -0.1631785   0.5983211  -0.0543928), wk =   0.0009103
        k(  826) = (  -0.2175713   0.6527140   0.0000000), wk =   0.0009103
        k(  827) = (   0.4351426   0.0000000  -0.6527140), wk =   0.0009103
        k(  828) = (   0.3807498   0.0543928  -0.5983211), wk =   0.0009103
        k(  829) = (   0.3263570   0.1087857  -0.5439283), wk =   0.0009103
        k(  830) = (   0.2719641   0.1631785  -0.4895355), wk =   0.0009103
        k(  831) = (   0.2175713   0.2175713  -0.4351426), wk =   0.0009103
        k(  832) = (   0.1631785   0.2719641  -0.3807498), wk =   0.0009103
        k(  833) = (   0.1631785   0.2719641  -0.2719641), wk =   0.0009103
        k(  834) = (   0.1087857   0.3263570  -0.2175713), wk =   0.0009103
        k(  835) = (   0.0543928   0.3807498  -0.1631785), wk =   0.0009103
        k(  836) = (   0.0000000   0.4351426  -0.1087857), wk =   0.0009103
        k(  837) = (  -0.0543928   0.4895355  -0.0543928), wk =   0.0009103
        k(  838) = (  -0.1087857   0.5439283   0.0000000), wk =   0.0009103
        k(  839) = (  -0.1631785   0.5983211   0.0543928), wk =   0.0009103
        k(  840) = (   0.4895355  -0.0543928  -0.5983211), wk =   0.0009103
        k(  841) = (   0.4351426   0.0000000  -0.5439283), wk =   0.0009103
        k(  842) = (   0.3807498   0.0543928  -0.4895355), wk =   0.0009103
        k(  843) = (   0.3263570   0.1087857  -0.4351426), wk =   0.0009103
        k(  844) = (   0.2719641   0.1631785  -0.3807498), wk =   0.0009103
        k(  845) = (   0.2175713   0.2175713  -0.3263570), wk =   0.0009103
        k(  846) = (   0.2719641   0.2719641  -0.2719641), wk =   0.0009103
        k(  847) = (   0.2175713   0.3263570  -0.2175713), wk =   0.0009103
        k(  848) = (   0.1631785   0.3807498  -0.1631785), wk =   0.0009103
        k(  849) = (   0.1087857   0.4351426  -0.1087857), wk =   0.0009103
        k(  850) = (   0.0543928   0.4895355  -0.0543928), wk =   0.0009103
        k(  851) = (   0.0000000   0.5439283   0.0000000), wk =   0.0009103
        k(  852) = (  -0.0543928   0.5983211   0.0543928), wk =   0.0009103
        k(  853) = (   0.5983211  -0.0543928  -0.5983211), wk =   0.0009103
        k(  854) = (   0.5439283   0.0000000  -0.5439283), wk =   0.0009103
        k(  855) = (   0.4895355   0.0543928  -0.4895355), wk =   0.0009103
        k(  856) = (   0.4351426   0.1087857  -0.4351426), wk =   0.0009103
        k(  857) = (   0.3807498   0.1631785  -0.3807498), wk =   0.0009103
        k(  858) = (   0.3263570   0.2175713  -0.3263570), wk =   0.0009103
        k(  859) = (   0.3263570   0.2175713  -0.2175713), wk =   0.0009103
        k(  860) = (   0.2719641   0.2719641  -0.1631785), wk =   0.0009103
        k(  861) = (   0.2175713   0.3263570  -0.1087857), wk =   0.0009103
        k(  862) = (   0.1631785   0.3807498  -0.0543928), wk =   0.0009103
        k(  863) = (   0.1087857   0.4351426   0.0000000), wk =   0.0009103
        k(  864) = (   0.0543928   0.4895355   0.0543928), wk =   0.0009103
        k(  865) = (   0.0000000   0.5439283   0.1087857), wk =   0.0009103
        k(  866) = (   0.6527140  -0.1087857  -0.5439283), wk =   0.0009103
        k(  867) = (   0.5983211  -0.0543928  -0.4895355), wk =   0.0009103
        k(  868) = (   0.5439283   0.0000000  -0.4351426), wk =   0.0009103
        k(  869) = (   0.4895355   0.0543928  -0.3807498), wk =   0.0009103
        k(  870) = (   0.4351426   0.1087857  -0.3263570), wk =   0.0009103
        k(  871) = (   0.3807498   0.1631785  -0.2719641), wk =   0.0009103
        k(  872) = (   0.3807498   0.1631785  -0.1631785), wk =   0.0009103
        k(  873) = (   0.3263570   0.2175713  -0.1087857), wk =   0.0009103
        k(  874) = (   0.2719641   0.2719641  -0.0543928), wk =   0.0009103
        k(  875) = (   0.2175713   0.3263570   0.0000000), wk =   0.0009103
        k(  876) = (   0.1631785   0.3807498   0.0543928), wk =   0.0009103
        k(  877) = (   0.1087857   0.4351426   0.1087857), wk =   0.0009103
        k(  878) = (   0.0543928   0.4895355   0.1631785), wk =   0.0009103
        k(  879) = (   0.7071068  -0.1631785  -0.4895355), wk =   0.0009103
        k(  880) = (   0.6527140  -0.1087857  -0.4351426), wk =   0.0009103
        k(  881) = (   0.5983211  -0.0543928  -0.3807498), wk =   0.0009103
        k(  882) = (   0.5439283   0.0000000  -0.3263570), wk =   0.0009103
        k(  883) = (   0.4895355   0.0543928  -0.2719641), wk =   0.0009103
        k(  884) = (   0.4351426   0.1087857  -0.2175713), wk =   0.0009103
        k(  885) = (   0.4351426   0.1087857  -0.1087857), wk =   0.0009103
        k(  886) = (   0.3807498   0.1631785  -0.0543928), wk =   0.0009103
        k(  887) = (   0.3263570   0.2175713   0.0000000), wk =   0.0009103
        k(  888) = (   0.2719641   0.2719641   0.0543928), wk =   0.0009103
        k(  889) = (   0.2175713   0.3263570   0.1087857), wk =   0.0009103
        k(  890) = (   0.1631785   0.3807498   0.1631785), wk =   0.0009103
        k(  891) = (   0.1087857   0.4351426   0.2175713), wk =   0.0009103
        k(  892) = (   0.7614996  -0.2175713  -0.4351426), wk =   0.0009103
        k(  893) = (   0.7071068  -0.1631785  -0.3807498), wk =   0.0009103
        k(  894) = (   0.6527140  -0.1087857  -0.3263570), wk =   0.0009103
        k(  895) = (   0.5983211  -0.0543928  -0.2719641), wk =   0.0009103
        k(  896) = (   0.5439283  -0.0000000  -0.2175713), wk =   0.0009103
        k(  897) = (   0.4895355   0.0543928  -0.1631785), wk =   0.0009103
        k(  898) = (   0.4895355   0.0543928  -0.0543928), wk =   0.0009103
        k(  899) = (   0.4351426   0.1087857   0.0000000), wk =   0.0009103
        k(  900) = (   0.3807498   0.1631785   0.0543928), wk =   0.0009103
        k(  901) = (   0.3263570   0.2175713   0.1087857), wk =   0.0009103
        k(  902) = (   0.2719641   0.2719641   0.1631785), wk =   0.0009103
        k(  903) = (   0.2175713   0.3263570   0.2175713), wk =   0.0009103
        k(  904) = (   0.1631785   0.3807498   0.2719641), wk =   0.0009103
        k(  905) = (   0.8158924  -0.2719641  -0.3807498), wk =   0.0009103
        k(  906) = (   0.7614996  -0.2175713  -0.3263570), wk =   0.0009103
        k(  907) = (   0.7071068  -0.1631785  -0.2719641), wk =   0.0009103
        k(  908) = (   0.6527140  -0.1087857  -0.2175713), wk =   0.0009103
        k(  909) = (   0.5983211  -0.0543928  -0.1631785), wk =   0.0009103
        k(  910) = (   0.5439283   0.0000000  -0.1087857), wk =   0.0009103
        k(  911) = (   0.5439283   0.0000000   0.0000000), wk =   0.0009103
        k(  912) = (   0.4895355   0.0543928   0.0543928), wk =   0.0009103
        k(  913) = (   0.4351426   0.1087857   0.1087857), wk =   0.0009103
        k(  914) = (   0.3807498   0.1631785   0.1631785), wk =   0.0009103
        k(  915) = (   0.3263570   0.2175713   0.2175713), wk =   0.0009103
        k(  916) = (   0.2719641   0.2719641   0.2719641), wk =   0.0009103
        k(  917) = (   0.2175713   0.3263570   0.3263570), wk =   0.0009103
        k(  918) = (   0.8702853  -0.3263570  -0.3263570), wk =   0.0009103
        k(  919) = (   0.8158924  -0.2719641  -0.2719641), wk =   0.0009103
        k(  920) = (   0.7614996  -0.2175713  -0.2175713), wk =   0.0009103
        k(  921) = (   0.7071068  -0.1631785  -0.1631785), wk =   0.0009103
        k(  922) = (   0.6527140  -0.1087857  -0.1087857), wk =   0.0009103
        k(  923) = (   0.5983211  -0.0543928  -0.0543928), wk =   0.0009103
        k(  924) = (   0.5983211  -0.0543928   0.0543928), wk =   0.0009103
        k(  925) = (   0.5439283  -0.0000000   0.1087857), wk =   0.0009103
        k(  926) = (   0.4895355   0.0543928   0.1631785), wk =   0.0009103
        k(  927) = (   0.4351426   0.1087857   0.2175713), wk =   0.0009103
        k(  928) = (   0.3807498   0.1631785   0.2719641), wk =   0.0009103
        k(  929) = (   0.3263570   0.2175713   0.3263570), wk =   0.0009103
        k(  930) = (   0.2719641   0.2719641   0.3807498), wk =   0.0009103
        k(  931) = (   0.9246781  -0.3807498  -0.2719641), wk =   0.0009103
        k(  932) = (   0.8702853  -0.3263570  -0.2175713), wk =   0.0009103
        k(  933) = (   0.8158924  -0.2719641  -0.1631785), wk =   0.0009103
        k(  934) = (   0.7614996  -0.2175713  -0.1087857), wk =   0.0009103
        k(  935) = (   0.7071068  -0.1631785  -0.0543928), wk =   0.0009103
        k(  936) = (   0.6527140  -0.1087857   0.0000000), wk =   0.0009103
        k(  937) = (  -0.0543928   0.5983211  -0.5983211), wk =   0.0009103
        k(  938) = (  -0.1087857   0.6527140  -0.5439283), wk =   0.0009103
        k(  939) = (  -0.1631785   0.7071068  -0.4895355), wk =   0.0009103
        k(  940) = (  -0.2175713   0.7614996  -0.4351426), wk =   0.0009103
        k(  941) = (  -0.2719641   0.8158924  -0.3807498), wk =   0.0009103
        k(  942) = (  -0.3263570   0.8702853  -0.3263570), wk =   0.0009103
        k(  943) = (  -0.3807498   0.9246781  -0.2719641), wk =   0.0009103
        k(  944) = (   0.2719641   0.2719641  -0.9246781), wk =   0.0009103
        k(  945) = (   0.2175713   0.3263570  -0.8702853), wk =   0.0009103
        k(  946) = (   0.1631785   0.3807498  -0.8158924), wk =   0.0009103
        k(  947) = (   0.1087857   0.4351426  -0.7614996), wk =   0.0009103
        k(  948) = (   0.0543928   0.4895355  -0.7071068), wk =   0.0009103
        k(  949) = (  -0.0000000   0.5439283  -0.6527140), wk =   0.0009103
        k(  950) = (   0.0000000   0.5439283  -0.5439283), wk =   0.0009103
        k(  951) = (  -0.0543928   0.5983211  -0.4895355), wk =   0.0009103
        k(  952) = (  -0.1087857   0.6527140  -0.4351426), wk =   0.0009103
        k(  953) = (  -0.1631785   0.7071068  -0.3807498), wk =   0.0009103
        k(  954) = (  -0.2175713   0.7614996  -0.3263570), wk =   0.0009103
        k(  955) = (  -0.2719641   0.8158924  -0.2719641), wk =   0.0009103
        k(  956) = (  -0.3263570   0.8702853  -0.2175713), wk =   0.0009103
        k(  957) = (   0.3263570   0.2175713  -0.8702853), wk =   0.0009103
        k(  958) = (   0.2719641   0.2719641  -0.8158924), wk =   0.0009103
        k(  959) = (   0.2175713   0.3263570  -0.7614996), wk =   0.0009103
        k(  960) = (   0.1631785   0.3807498  -0.7071068), wk =   0.0009103
        k(  961) = (   0.1087857   0.4351426  -0.6527140), wk =   0.0009103
        k(  962) = (   0.0543928   0.4895355  -0.5983211), wk =   0.0009103
        k(  963) = (   0.0543928   0.4895355  -0.4895355), wk =   0.0009103
        k(  964) = (  -0.0000000   0.5439283  -0.4351426), wk =   0.0009103
        k(  965) = (  -0.0543928   0.5983211  -0.3807498), wk =   0.0009103
        k(  966) = (  -0.1087857   0.6527140  -0.3263570), wk =   0.0009103
        k(  967) = (  -0.1631785   0.7071068  -0.2719641), wk =   0.0009103
        k(  968) = (  -0.2175713   0.7614996  -0.2175713), wk =   0.0009103
        k(  969) = (  -0.2719641   0.8158924  -0.1631785), wk =   0.0009103
        k(  970) = (   0.3807498   0.1631785  -0.8158924), wk =   0.0009103
        k(  971) = (   0.3263570   0.2175713  -0.7614996), wk =   0.0009103
        k(  972) = (   0.2719641   0.2719641  -0.7071068), wk =   0.0009103
        k(  973) = (   0.2175713   0.3263570  -0.6527140), wk =   0.0009103
        k(  974) = (   0.1631785   0.3807498  -0.5983211), wk =   0.0009103
        k(  975) = (   0.1087857   0.4351426  -0.5439283), wk =   0.0009103
        k(  976) = (   0.1087857   0.4351426  -0.4351426), wk =   0.0009103
        k(  977) = (   0.0543928   0.4895355  -0.3807498), wk =   0.0009103
        k(  978) = (   0.0000000   0.5439283  -0.3263570), wk =   0.0009103
        k(  979) = (  -0.0543928   0.5983211  -0.2719641), wk =   0.0009103
        k(  980) = (  -0.1087857   0.6527140  -0.2175713), wk =   0.0009103
        k(  981) = (  -0.1631785   0.7071068  -0.1631785), wk =   0.0009103
        k(  982) = (  -0.2175713   0.7614996  -0.1087857), wk =   0.0009103
        k(  983) = (   0.4351426   0.1087857  -0.7614996), wk =   0.0009103
        k(  984) = (   0.3807498   0.1631785  -0.7071068), wk =   0.0009103
        k(  985) = (   0.3263570   0.2175713  -0.6527140), wk =   0.0009103
        k(  986) = (   0.2719641   0.2719641  -0.5983211), wk =   0.0009103
        k(  987) = (   0.2175713   0.3263570  -0.5439283), wk =   0.0009103
        k(  988) = (   0.1631785   0.3807498  -0.4895355), wk =   0.0009103
[...]
        k( 1937) = (  -0.1538462   0.3846154  -0.0769231), wk =   0.0009103
        k( 1938) = (  -0.1538462   0.4615385   0.0000000), wk =   0.0009103
        k( 1939) = (  -0.1538462   0.4615385   0.0769231), wk =   0.0009103
        k( 1940) = (  -0.1538462   0.4615385   0.1538462), wk =   0.0009103
        k( 1941) = (  -0.1538462   0.4615385   0.2307692), wk =   0.0009103
        k( 1942) = (  -0.1538462   0.4615385   0.3076923), wk =   0.0009103
        k( 1943) = (  -0.1538462   0.4615385   0.3846154), wk =   0.0009103
        k( 1944) = (  -0.1538462   0.4615385   0.4615385), wk =   0.0009103
        k( 1945) = (  -0.1538462   0.4615385  -0.4615385), wk =   0.0009103
        k( 1946) = (  -0.1538462   0.4615385  -0.3846154), wk =   0.0009103
        k( 1947) = (  -0.1538462   0.4615385  -0.3076923), wk =   0.0009103
        k( 1948) = (  -0.1538462   0.4615385  -0.2307692), wk =   0.0009103
        k( 1949) = (  -0.1538462   0.4615385  -0.1538462), wk =   0.0009103
        k( 1950) = (  -0.1538462   0.4615385  -0.0769231), wk =   0.0009103
        k( 1951) = (  -0.1538462  -0.4615385   0.0000000), wk =   0.0009103
        k( 1952) = (  -0.1538462  -0.4615385   0.0769231), wk =   0.0009103
        k( 1953) = (  -0.1538462  -0.4615385   0.1538462), wk =   0.0009103
        k( 1954) = (  -0.1538462  -0.4615385   0.2307692), wk =   0.0009103
        k( 1955) = (  -0.1538462  -0.4615385   0.3076923), wk =   0.0009103
        k( 1956) = (  -0.1538462  -0.4615385   0.3846154), wk =   0.0009103
        k( 1957) = (  -0.1538462  -0.4615385   0.4615385), wk =   0.0009103
        k( 1958) = (  -0.1538462  -0.4615385  -0.4615385), wk =   0.0009103
        k( 1959) = (  -0.1538462  -0.4615385  -0.3846154), wk =   0.0009103
        k( 1960) = (  -0.1538462  -0.4615385  -0.3076923), wk =   0.0009103
        k( 1961) = (  -0.1538462  -0.4615385  -0.2307692), wk =   0.0009103
        k( 1962) = (  -0.1538462  -0.4615385  -0.1538462), wk =   0.0009103
        k( 1963) = (  -0.1538462  -0.4615385  -0.0769231), wk =   0.0009103
        k( 1964) = (  -0.1538462  -0.3846154   0.0000000), wk =   0.0009103
        k( 1965) = (  -0.1538462  -0.3846154   0.0769231), wk =   0.0009103
        k( 1966) = (  -0.1538462  -0.3846154   0.1538462), wk =   0.0009103
        k( 1967) = (  -0.1538462  -0.3846154   0.2307692), wk =   0.0009103
        k( 1968) = (  -0.1538462  -0.3846154   0.3076923), wk =   0.0009103
        k( 1969) = (  -0.1538462  -0.3846154   0.3846154), wk =   0.0009103
        k( 1970) = (  -0.1538462  -0.3846154   0.4615385), wk =   0.0009103
        k( 1971) = (  -0.1538462  -0.3846154  -0.4615385), wk =   0.0009103
        k( 1972) = (  -0.1538462  -0.3846154  -0.3846154), wk =   0.0009103
        k( 1973) = (  -0.1538462  -0.3846154  -0.3076923), wk =   0.0009103
        k( 1974) = (  -0.1538462  -0.3846154  -0.2307692), wk =   0.0009103
        k( 1975) = (  -0.1538462  -0.3846154  -0.1538462), wk =   0.0009103
        k( 1976) = (  -0.1538462  -0.3846154  -0.0769231), wk =   0.0009103
        k( 1977) = (  -0.1538462  -0.3076923   0.0000000), wk =   0.0009103
        k( 1978) = (  -0.1538462  -0.3076923   0.0769231), wk =   0.0009103
        k( 1979) = (  -0.1538462  -0.3076923   0.1538462), wk =   0.0009103
        k( 1980) = (  -0.1538462  -0.3076923   0.2307692), wk =   0.0009103
        k( 1981) = (  -0.1538462  -0.3076923   0.3076923), wk =   0.0009103
        k( 1982) = (  -0.1538462  -0.3076923   0.3846154), wk =   0.0009103
        k( 1983) = (  -0.1538462  -0.3076923   0.4615385), wk =   0.0009103
        k( 1984) = (  -0.1538462  -0.3076923  -0.4615385), wk =   0.0009103
        k( 1985) = (  -0.1538462  -0.3076923  -0.3846154), wk =   0.0009103
        k( 1986) = (  -0.1538462  -0.3076923  -0.3076923), wk =   0.0009103
        k( 1987) = (  -0.1538462  -0.3076923  -0.2307692), wk =   0.0009103
        k( 1988) = (  -0.1538462  -0.3076923  -0.1538462), wk =   0.0009103
        k( 1989) = (  -0.1538462  -0.3076923  -0.0769231), wk =   0.0009103
        k( 1990) = (  -0.1538462  -0.2307692   0.0000000), wk =   0.0009103
        k( 1991) = (  -0.1538462  -0.2307692   0.0769231), wk =   0.0009103
        k( 1992) = (  -0.1538462  -0.2307692   0.1538462), wk =   0.0009103
        k( 1993) = (  -0.1538462  -0.2307692   0.2307692), wk =   0.0009103
        k( 1994) = (  -0.1538462  -0.2307692   0.3076923), wk =   0.0009103
        k( 1995) = (  -0.1538462  -0.2307692   0.3846154), wk =   0.0009103
        k( 1996) = (  -0.1538462  -0.2307692   0.4615385), wk =   0.0009103
        k( 1997) = (  -0.1538462  -0.2307692  -0.4615385), wk =   0.0009103
        k( 1998) = (  -0.1538462  -0.2307692  -0.3846154), wk =   0.0009103
        k( 1999) = (  -0.1538462  -0.2307692  -0.3076923), wk =   0.0009103
        k( 2000) = (  -0.1538462  -0.2307692  -0.2307692), wk =   0.0009103
        k( 2001) = (  -0.1538462  -0.2307692  -0.1538462), wk =   0.0009103
        k( 2002) = (  -0.1538462  -0.2307692  -0.0769231), wk =   0.0009103
        k( 2003) = (  -0.1538462  -0.1538462   0.0000000), wk =   0.0009103
        k( 2004) = (  -0.1538462  -0.1538462   0.0769231), wk =   0.0009103
        k( 2005) = (  -0.1538462  -0.1538462   0.1538462), wk =   0.0009103
        k( 2006) = (  -0.1538462  -0.1538462   0.2307692), wk =   0.0009103
        k( 2007) = (  -0.1538462  -0.1538462   0.3076923), wk =   0.0009103
        k( 2008) = (  -0.1538462  -0.1538462   0.3846154), wk =   0.0009103
        k( 2009) = (  -0.1538462  -0.1538462   0.4615385), wk =   0.0009103
        k( 2010) = (  -0.1538462  -0.1538462  -0.4615385), wk =   0.0009103
        k( 2011) = (  -0.1538462  -0.1538462  -0.3846154), wk =   0.0009103
        k( 2012) = (  -0.1538462  -0.1538462  -0.3076923), wk =   0.0009103
        k( 2013) = (  -0.1538462  -0.1538462  -0.2307692), wk =   0.0009103
        k( 2014) = (  -0.1538462  -0.1538462  -0.1538462), wk =   0.0009103
        k( 2015) = (  -0.1538462  -0.1538462  -0.0769231), wk =   0.0009103
        k( 2016) = (  -0.1538462  -0.0769231   0.0000000), wk =   0.0009103
        k( 2017) = (  -0.1538462  -0.0769231   0.0769231), wk =   0.0009103
        k( 2018) = (  -0.1538462  -0.0769231   0.1538462), wk =   0.0009103
        k( 2019) = (  -0.1538462  -0.0769231   0.2307692), wk =   0.0009103
        k( 2020) = (  -0.1538462  -0.0769231   0.3076923), wk =   0.0009103
        k( 2021) = (  -0.1538462  -0.0769231   0.3846154), wk =   0.0009103
        k( 2022) = (  -0.1538462  -0.0769231   0.4615385), wk =   0.0009103
        k( 2023) = (  -0.1538462  -0.0769231  -0.4615385), wk =   0.0009103
        k( 2024) = (  -0.1538462  -0.0769231  -0.3846154), wk =   0.0009103
        k( 2025) = (  -0.1538462  -0.0769231  -0.3076923), wk =   0.0009103
        k( 2026) = (  -0.1538462  -0.0769231  -0.2307692), wk =   0.0009103
        k( 2027) = (  -0.1538462  -0.0769231  -0.1538462), wk =   0.0009103
        k( 2028) = (  -0.1538462  -0.0769231  -0.0769231), wk =   0.0009103
        k( 2029) = (  -0.0769231   0.0000000   0.0000000), wk =   0.0009103
        k( 2030) = (  -0.0769231   0.0000000   0.0769231), wk =   0.0009103
        k( 2031) = (  -0.0769231   0.0000000   0.1538462), wk =   0.0009103
        k( 2032) = (  -0.0769231   0.0000000   0.2307692), wk =   0.0009103
        k( 2033) = (  -0.0769231   0.0000000   0.3076923), wk =   0.0009103
        k( 2034) = (  -0.0769231   0.0000000   0.3846154), wk =   0.0009103
        k( 2035) = (  -0.0769231   0.0000000   0.4615385), wk =   0.0009103
        k( 2036) = (  -0.0769231   0.0000000  -0.4615385), wk =   0.0009103
        k( 2037) = (  -0.0769231   0.0000000  -0.3846154), wk =   0.0009103
        k( 2038) = (  -0.0769231   0.0000000  -0.3076923), wk =   0.0009103
        k( 2039) = (  -0.0769231   0.0000000  -0.2307692), wk =   0.0009103
        k( 2040) = (  -0.0769231   0.0000000  -0.1538462), wk =   0.0009103
        k( 2041) = (  -0.0769231   0.0000000  -0.0769231), wk =   0.0009103
        k( 2042) = (  -0.0769231   0.0769231   0.0000000), wk =   0.0009103
        k( 2043) = (  -0.0769231   0.0769231   0.0769231), wk =   0.0009103
        k( 2044) = (  -0.0769231   0.0769231   0.1538462), wk =   0.0009103
        k( 2045) = (  -0.0769231   0.0769231   0.2307692), wk =   0.0009103
        k( 2046) = (  -0.0769231   0.0769231   0.3076923), wk =   0.0009103
        k( 2047) = (  -0.0769231   0.0769231   0.3846154), wk =   0.0009103
        k( 2048) = (  -0.0769231   0.0769231   0.4615385), wk =   0.0009103
        k( 2049) = (  -0.0769231   0.0769231  -0.4615385), wk =   0.0009103
        k( 2050) = (  -0.0769231   0.0769231  -0.3846154), wk =   0.0009103
        k( 2051) = (  -0.0769231   0.0769231  -0.3076923), wk =   0.0009103
        k( 2052) = (  -0.0769231   0.0769231  -0.2307692), wk =   0.0009103
        k( 2053) = (  -0.0769231   0.0769231  -0.1538462), wk =   0.0009103
        k( 2054) = (  -0.0769231   0.0769231  -0.0769231), wk =   0.0009103
        k( 2055) = (  -0.0769231   0.1538462   0.0000000), wk =   0.0009103
        k( 2056) = (  -0.0769231   0.1538462   0.0769231), wk =   0.0009103
        k( 2057) = (  -0.0769231   0.1538462   0.1538462), wk =   0.0009103
        k( 2058) = (  -0.0769231   0.1538462   0.2307692), wk =   0.0009103
        k( 2059) = (  -0.0769231   0.1538462   0.3076923), wk =   0.0009103
        k( 2060) = (  -0.0769231   0.1538462   0.3846154), wk =   0.0009103
        k( 2061) = (  -0.0769231   0.1538462   0.4615385), wk =   0.0009103
        k( 2062) = (  -0.0769231   0.1538462  -0.4615385), wk =   0.0009103
        k( 2063) = (  -0.0769231   0.1538462  -0.3846154), wk =   0.0009103
        k( 2064) = (  -0.0769231   0.1538462  -0.3076923), wk =   0.0009103
        k( 2065) = (  -0.0769231   0.1538462  -0.2307692), wk =   0.0009103
        k( 2066) = (  -0.0769231   0.1538462  -0.1538462), wk =   0.0009103
        k( 2067) = (  -0.0769231   0.1538462  -0.0769231), wk =   0.0009103
        k( 2068) = (  -0.0769231   0.2307692   0.0000000), wk =   0.0009103
        k( 2069) = (  -0.0769231   0.2307692   0.0769231), wk =   0.0009103
        k( 2070) = (  -0.0769231   0.2307692   0.1538462), wk =   0.0009103
        k( 2071) = (  -0.0769231   0.2307692   0.2307692), wk =   0.0009103
        k( 2072) = (  -0.0769231   0.2307692   0.3076923), wk =   0.0009103
        k( 2073) = (  -0.0769231   0.2307692   0.3846154), wk =   0.0009103
        k( 2074) = (  -0.0769231   0.2307692   0.4615385), wk =   0.0009103
        k( 2075) = (  -0.0769231   0.2307692  -0.4615385), wk =   0.0009103
        k( 2076) = (  -0.0769231   0.2307692  -0.3846154), wk =   0.0009103
        k( 2077) = (  -0.0769231   0.2307692  -0.3076923), wk =   0.0009103
        k( 2078) = (  -0.0769231   0.2307692  -0.2307692), wk =   0.0009103
        k( 2079) = (  -0.0769231   0.2307692  -0.1538462), wk =   0.0009103
        k( 2080) = (  -0.0769231   0.2307692  -0.0769231), wk =   0.0009103
        k( 2081) = (  -0.0769231   0.3076923   0.0000000), wk =   0.0009103
        k( 2082) = (  -0.0769231   0.3076923   0.0769231), wk =   0.0009103
        k( 2083) = (  -0.0769231   0.3076923   0.1538462), wk =   0.0009103
        k( 2084) = (  -0.0769231   0.3076923   0.2307692), wk =   0.0009103
        k( 2085) = (  -0.0769231   0.3076923   0.3076923), wk =   0.0009103
        k( 2086) = (  -0.0769231   0.3076923   0.3846154), wk =   0.0009103
        k( 2087) = (  -0.0769231   0.3076923   0.4615385), wk =   0.0009103
        k( 2088) = (  -0.0769231   0.3076923  -0.4615385), wk =   0.0009103
        k( 2089) = (  -0.0769231   0.3076923  -0.3846154), wk =   0.0009103
        k( 2090) = (  -0.0769231   0.3076923  -0.3076923), wk =   0.0009103
        k( 2091) = (  -0.0769231   0.3076923  -0.2307692), wk =   0.0009103
        k( 2092) = (  -0.0769231   0.3076923  -0.1538462), wk =   0.0009103
        k( 2093) = (  -0.0769231   0.3076923  -0.0769231), wk =   0.0009103
        k( 2094) = (  -0.0769231   0.3846154   0.0000000), wk =   0.0009103
        k( 2095) = (  -0.0769231   0.3846154   0.0769231), wk =   0.0009103
        k( 2096) = (  -0.0769231   0.3846154   0.1538462), wk =   0.0009103
        k( 2097) = (  -0.0769231   0.3846154   0.2307692), wk =   0.0009103
        k( 2098) = (  -0.0769231   0.3846154   0.3076923), wk =   0.0009103
        k( 2099) = (  -0.0769231   0.3846154   0.3846154), wk =   0.0009103
        k( 2100) = (  -0.0769231   0.3846154   0.4615385), wk =   0.0009103
        k( 2101) = (  -0.0769231   0.3846154  -0.4615385), wk =   0.0009103
        k( 2102) = (  -0.0769231   0.3846154  -0.3846154), wk =   0.0009103
        k( 2103) = (  -0.0769231   0.3846154  -0.3076923), wk =   0.0009103
        k( 2104) = (  -0.0769231   0.3846154  -0.2307692), wk =   0.0009103
        k( 2105) = (  -0.0769231   0.3846154  -0.1538462), wk =   0.0009103
        k( 2106) = (  -0.0769231   0.3846154  -0.0769231), wk =   0.0009103
        k( 2107) = (  -0.0769231   0.4615385   0.0000000), wk =   0.0009103
        k( 2108) = (  -0.0769231   0.4615385   0.0769231), wk =   0.0009103
        k( 2109) = (  -0.0769231   0.4615385   0.1538462), wk =   0.0009103
        k( 2110) = (  -0.0769231   0.4615385   0.2307692), wk =   0.0009103
        k( 2111) = (  -0.0769231   0.4615385   0.3076923), wk =   0.0009103
        k( 2112) = (  -0.0769231   0.4615385   0.3846154), wk =   0.0009103
        k( 2113) = (  -0.0769231   0.4615385   0.4615385), wk =   0.0009103
        k( 2114) = (  -0.0769231   0.4615385  -0.4615385), wk =   0.0009103
        k( 2115) = (  -0.0769231   0.4615385  -0.3846154), wk =   0.0009103
        k( 2116) = (  -0.0769231   0.4615385  -0.3076923), wk =   0.0009103
        k( 2117) = (  -0.0769231   0.4615385  -0.2307692), wk =   0.0009103
        k( 2118) = (  -0.0769231   0.4615385  -0.1538462), wk =   0.0009103
        k( 2119) = (  -0.0769231   0.4615385  -0.0769231), wk =   0.0009103
        k( 2120) = (  -0.0769231  -0.4615385   0.0000000), wk =   0.0009103
        k( 2121) = (  -0.0769231  -0.4615385   0.0769231), wk =   0.0009103
        k( 2122) = (  -0.0769231  -0.4615385   0.1538462), wk =   0.0009103
        k( 2123) = (  -0.0769231  -0.4615385   0.2307692), wk =   0.0009103
        k( 2124) = (  -0.0769231  -0.4615385   0.3076923), wk =   0.0009103
        k( 2125) = (  -0.0769231  -0.4615385   0.3846154), wk =   0.0009103
        k( 2126) = (  -0.0769231  -0.4615385   0.4615385), wk =   0.0009103
        k( 2127) = (  -0.0769231  -0.4615385  -0.4615385), wk =   0.0009103
        k( 2128) = (  -0.0769231  -0.4615385  -0.3846154), wk =   0.0009103
        k( 2129) = (  -0.0769231  -0.4615385  -0.3076923), wk =   0.0009103
        k( 2130) = (  -0.0769231  -0.4615385  -0.2307692), wk =   0.0009103
        k( 2131) = (  -0.0769231  -0.4615385  -0.1538462), wk =   0.0009103
        k( 2132) = (  -0.0769231  -0.4615385  -0.0769231), wk =   0.0009103
        k( 2133) = (  -0.0769231  -0.3846154   0.0000000), wk =   0.0009103
        k( 2134) = (  -0.0769231  -0.3846154   0.0769231), wk =   0.0009103
        k( 2135) = (  -0.0769231  -0.3846154   0.1538462), wk =   0.0009103
        k( 2136) = (  -0.0769231  -0.3846154   0.2307692), wk =   0.0009103
        k( 2137) = (  -0.0769231  -0.3846154   0.3076923), wk =   0.0009103
        k( 2138) = (  -0.0769231  -0.3846154   0.3846154), wk =   0.0009103
        k( 2139) = (  -0.0769231  -0.3846154   0.4615385), wk =   0.0009103
        k( 2140) = (  -0.0769231  -0.3846154  -0.4615385), wk =   0.0009103
        k( 2141) = (  -0.0769231  -0.3846154  -0.3846154), wk =   0.0009103
        k( 2142) = (  -0.0769231  -0.3846154  -0.3076923), wk =   0.0009103
        k( 2143) = (  -0.0769231  -0.3846154  -0.2307692), wk =   0.0009103
        k( 2144) = (  -0.0769231  -0.3846154  -0.1538462), wk =   0.0009103
        k( 2145) = (  -0.0769231  -0.3846154  -0.0769231), wk =   0.0009103
        k( 2146) = (  -0.0769231  -0.3076923   0.0000000), wk =   0.0009103
        k( 2147) = (  -0.0769231  -0.3076923   0.0769231), wk =   0.0009103
        k( 2148) = (  -0.0769231  -0.3076923   0.1538462), wk =   0.0009103
        k( 2149) = (  -0.0769231  -0.3076923   0.2307692), wk =   0.0009103
        k( 2150) = (  -0.0769231  -0.3076923   0.3076923), wk =   0.0009103
        k( 2151) = (  -0.0769231  -0.3076923   0.3846154), wk =   0.0009103
        k( 2152) = (  -0.0769231  -0.3076923   0.4615385), wk =   0.0009103
        k( 2153) = (  -0.0769231  -0.3076923  -0.4615385), wk =   0.0009103
        k( 2154) = (  -0.0769231  -0.3076923  -0.3846154), wk =   0.0009103
        k( 2155) = (  -0.0769231  -0.3076923  -0.3076923), wk =   0.0009103
        k( 2156) = (  -0.0769231  -0.3076923  -0.2307692), wk =   0.0009103
        k( 2157) = (  -0.0769231  -0.3076923  -0.1538462), wk =   0.0009103
        k( 2158) = (  -0.0769231  -0.3076923  -0.0769231), wk =   0.0009103
        k( 2159) = (  -0.0769231  -0.2307692   0.0000000), wk =   0.0009103
        k( 2160) = (  -0.0769231  -0.2307692   0.0769231), wk =   0.0009103
        k( 2161) = (  -0.0769231  -0.2307692   0.1538462), wk =   0.0009103
        k( 2162) = (  -0.0769231  -0.2307692   0.2307692), wk =   0.0009103
        k( 2163) = (  -0.0769231  -0.2307692   0.3076923), wk =   0.0009103
        k( 2164) = (  -0.0769231  -0.2307692   0.3846154), wk =   0.0009103
        k( 2165) = (  -0.0769231  -0.2307692   0.4615385), wk =   0.0009103
        k( 2166) = (  -0.0769231  -0.2307692  -0.4615385), wk =   0.0009103
        k( 2167) = (  -0.0769231  -0.2307692  -0.3846154), wk =   0.0009103
        k( 2168) = (  -0.0769231  -0.2307692  -0.3076923), wk =   0.0009103
        k( 2169) = (  -0.0769231  -0.2307692  -0.2307692), wk =   0.0009103
        k( 2170) = (  -0.0769231  -0.2307692  -0.1538462), wk =   0.0009103
        k( 2171) = (  -0.0769231  -0.2307692  -0.0769231), wk =   0.0009103
        k( 2172) = (  -0.0769231  -0.1538462   0.0000000), wk =   0.0009103
        k( 2173) = (  -0.0769231  -0.1538462   0.0769231), wk =   0.0009103
        k( 2174) = (  -0.0769231  -0.1538462   0.1538462), wk =   0.0009103
        k( 2175) = (  -0.0769231  -0.1538462   0.2307692), wk =   0.0009103
        k( 2176) = (  -0.0769231  -0.1538462   0.3076923), wk =   0.0009103
        k( 2177) = (  -0.0769231  -0.1538462   0.3846154), wk =   0.0009103
        k( 2178) = (  -0.0769231  -0.1538462   0.4615385), wk =   0.0009103
        k( 2179) = (  -0.0769231  -0.1538462  -0.4615385), wk =   0.0009103
        k( 2180) = (  -0.0769231  -0.1538462  -0.3846154), wk =   0.0009103
        k( 2181) = (  -0.0769231  -0.1538462  -0.3076923), wk =   0.0009103
        k( 2182) = (  -0.0769231  -0.1538462  -0.2307692), wk =   0.0009103
        k( 2183) = (  -0.0769231  -0.1538462  -0.1538462), wk =   0.0009103
        k( 2184) = (  -0.0769231  -0.1538462  -0.0769231), wk =   0.0009103
        k( 2185) = (  -0.0769231  -0.0769231   0.0000000), wk =   0.0009103
        k( 2186) = (  -0.0769231  -0.0769231   0.0769231), wk =   0.0009103
        k( 2187) = (  -0.0769231  -0.0769231   0.1538462), wk =   0.0009103
        k( 2188) = (  -0.0769231  -0.0769231   0.2307692), wk =   0.0009103
        k( 2189) = (  -0.0769231  -0.0769231   0.3076923), wk =   0.0009103
        k( 2190) = (  -0.0769231  -0.0769231   0.3846154), wk =   0.0009103
        k( 2191) = (  -0.0769231  -0.0769231   0.4615385), wk =   0.0009103
        k( 2192) = (  -0.0769231  -0.0769231  -0.4615385), wk =   0.0009103
        k( 2193) = (  -0.0769231  -0.0769231  -0.3846154), wk =   0.0009103
        k( 2194) = (  -0.0769231  -0.0769231  -0.3076923), wk =   0.0009103
        k( 2195) = (  -0.0769231  -0.0769231  -0.2307692), wk =   0.0009103
        k( 2196) = (  -0.0769231  -0.0769231  -0.1538462), wk =   0.0009103
        k( 2197) = (  -0.0769231  -0.0769231  -0.0769231), wk =   0.0009103

     Dense  grid:    71537 G-vectors     FFT dimensions: (  60,  60,  60)

     Smooth grid:    25509 G-vectors     FFT dimensions: (  45,  45,  45)
