
     Program PWSCF v.7.3.1 starts on  6Aug2024 at 11:56: 7 

     This program is part of the open-source Quantum ESPRESSO suite
     for quantum simulation of materials; please cite
         "P. Giannozzi et al., J. Phys.:Condens. Matter 21 395502 (2009);
         "P. Giannozzi et al., J. Phys.:Condens. Matter 29 465901 (2017);
         "P. Giannozzi et al., J. Chem. Phys. 152 154105 (2020);
          URL http://www.quantum-espresso.org", 
     in publications or presentations arising from this work. More details at
     http://www.quantum-espresso.org/quote

     Parallel version (MPI), running on     1 processors

     MPI processes distributed on     1 nodes
     592 MiB available memory on the printing compute node when the environment starts

     Reading input from GaAs.pwi

     Current dimensions of program PWSCF are:
     Max number of different atomic species (ntypx) = 10
     Max number of k-points (npk) =  40000
     Max angular momentum in pseudopotentials (lmaxx) =  4
     Message from routine volume:
     axis vectors are left-handed
     Message from routine setup:
     using ibrav=0 with symmetry is DISCOURAGED, use correct ibrav instead

     Subspace diagonalization in iterative solution of the eigenvalue problem:
     a serial algorithm will be used


     G-vector sticks info
     --------------------
     sticks:   dense  smooth     PW     G-vecs:    dense   smooth      PW
     Sum        2263    1147    349                71537    25509    4111

     Using Slab Decomposition



     bravais-lattice index     =            0
     lattice parameter (alat)  =       7.6834  a.u.
     unit-cell volume          =     320.7304 (a.u.)^3
     number of atoms/cell      =            2
     number of atomic types    =            2
     number of electrons       =        28.00
     number of Kohn-Sham states=           14
     kinetic-energy cutoff     =      70.0000  Ry
     charge density cutoff     =     560.0000  Ry
     scf convergence threshold =      4.0E-10
     mixing beta               =       0.4000
     number of iterations used =            8  plain     mixing
     Exchange-correlation= SLA  PW   NOGX NOGC
                           (   1   4   0   0   0   0   0)

     celldm(1)=   7.683369  celldm(2)=   0.000000  celldm(3)=   0.000000
     celldm(4)=   0.000000  celldm(5)=   0.000000  celldm(6)=   0.000000

     crystal axes: (cart. coord. in units of alat)
               a(1) = (   0.707107   0.707107   0.000000 )  
               a(2) = (   0.707107   0.000000   0.707107 )  
               a(3) = (   0.000000   0.707107   0.707107 )  

     reciprocal axes: (cart. coord. in units 2 pi/alat)
               b(1) = (  0.707107  0.707107 -0.707107 )  
               b(2) = (  0.707107 -0.707107  0.707107 )  
               b(3) = ( -0.707107  0.707107  0.707107 )  


     PseudoPot. # 1 for As read from file:
     ./pseudo/As.upf
     MD5 check sum: 33c531620a5edaf59d417d4ab58437b1
     Pseudo is Norm-conserving + core correction, Zval = 15.0
     Generated using ONCVPSP code by D. R. Hamann
     Using radial grid of 1326 points,  6 beta functions with: 
                l(1) =   0
                l(2) =   0
                l(3) =   1
                l(4) =   1
                l(5) =   2
                l(6) =   2

     PseudoPot. # 2 for Ga read from file:
     ./pseudo/Ga.upf
     MD5 check sum: 1297264db1911d3fa8c63c42f023f390
     Pseudo is Norm-conserving + core correction, Zval = 13.0
     Generated using ONCVPSP code by D. R. Hamann
     Using radial grid of 1858 points,  6 beta functions with: 
                l(1) =   0
                l(2) =   0
                l(3) =   1
                l(4) =   1
                l(5) =   2
                l(6) =   2

     atomic species   valence    mass     pseudopotential
     As               15.00    74.92160     As( 1.00)
     Ga               13.00    69.72300     Ga( 1.00)

     24 Sym. Ops. (no inversion) found


                                    s                        frac. trans.

      isym =  1     identity                                     

 cryst.   s( 1) = (     1          0          0      )
                  (     0          1          0      )
                  (     0          0          1      )

 cart.    s( 1) = (  1.0000000  0.0000000  0.0000000 )
                  (  0.0000000  1.0000000  0.0000000 )
                  (  0.0000000  0.0000000  1.0000000 )


      isym =  2     180 deg rotation - cart. axis [0,0,1]        

 cryst.   s( 2) = (    -1          0          0      )
                  (    -1          0          1      )
                  (    -1          1          0      )

 cart.    s( 2) = ( -1.0000000  0.0000000  0.0000000 )
                  (  0.0000000 -1.0000000  0.0000000 )
                  (  0.0000000  0.0000000  1.0000000 )


      isym =  3     180 deg rotation - cart. axis [0,1,0]        

 cryst.   s( 3) = (     0         -1          1      )
                  (     0         -1          0      )
                  (     1         -1          0      )

 cart.    s( 3) = ( -1.0000000  0.0000000  0.0000000 )
                  (  0.0000000  1.0000000  0.0000000 )
                  (  0.0000000  0.0000000 -1.0000000 )


      isym =  4     180 deg rotation - cart. axis [1,0,0]        

 cryst.   s( 4) = (     0          1         -1      )
                  (     1          0         -1      )
                  (     0          0         -1      )

 cart.    s( 4) = (  1.0000000  0.0000000  0.0000000 )
                  (  0.0000000 -1.0000000  0.0000000 )
                  (  0.0000000  0.0000000 -1.0000000 )


      isym =  5     120 deg rotation - cart. axis [-1,-1,-1]     

 cryst.   s( 5) = (     0          1          0      )
                  (     0          0          1      )
                  (     1          0          0      )

 cart.    s( 5) = (  0.0000000  1.0000000  0.0000000 )
                  (  0.0000000  0.0000000  1.0000000 )
                  (  1.0000000  0.0000000  0.0000000 )


      isym =  6     120 deg rotation - cart. axis [-1,1,1]       

 cryst.   s( 6) = (     0         -1          0      )
                  (     1         -1          0      )
                  (     0         -1          1      )

 cart.    s( 6) = (  0.0000000 -1.0000000  0.0000000 )
                  (  0.0000000  0.0000000  1.0000000 )
                  ( -1.0000000  0.0000000  0.0000000 )


      isym =  7     120 deg rotation - cart. axis [1,1,-1]       

 cryst.   s( 7) = (     1          0         -1      )
                  (     0          0         -1      )
                  (     0          1         -1      )

 cart.    s( 7) = (  0.0000000  1.0000000  0.0000000 )
                  (  0.0000000  0.0000000 -1.0000000 )
                  ( -1.0000000  0.0000000  0.0000000 )


      isym =  8     120 deg rotation - cart. axis [1,-1,1]       

 cryst.   s( 8) = (    -1          0          1      )
                  (    -1          1          0      )
                  (    -1          0          0      )

 cart.    s( 8) = (  0.0000000 -1.0000000  0.0000000 )
                  (  0.0000000  0.0000000 -1.0000000 )
                  (  1.0000000  0.0000000  0.0000000 )


      isym =  9     120 deg rotation - cart. axis [1,1,1]        

 cryst.   s( 9) = (     0          0          1      )
                  (     1          0          0      )
                  (     0          1          0      )

 cart.    s( 9) = (  0.0000000  0.0000000  1.0000000 )
                  (  1.0000000  0.0000000  0.0000000 )
                  (  0.0000000  1.0000000  0.0000000 )


      isym = 10     120 deg rotation - cart. axis [-1,1,-1]      

 cryst.   s(10) = (     0          0         -1      )
                  (     0          1         -1      )
                  (     1          0         -1      )

 cart.    s(10) = (  0.0000000  0.0000000  1.0000000 )
                  ( -1.0000000  0.0000000  0.0000000 )
                  (  0.0000000 -1.0000000  0.0000000 )


      isym = 11     120 deg rotation - cart. axis [1,-1,-1]      

 cryst.   s(11) = (    -1          1          0      )
                  (    -1          0          0      )
                  (    -1          0          1      )

 cart.    s(11) = (  0.0000000  0.0000000 -1.0000000 )
                  ( -1.0000000  0.0000000  0.0000000 )
                  (  0.0000000  1.0000000  0.0000000 )


      isym = 12     120 deg rotation - cart. axis [-1,-1,1]      

 cryst.   s(12) = (     1         -1          0      )
                  (     0         -1          1      )
                  (     0         -1          0      )

 cart.    s(12) = (  0.0000000  0.0000000 -1.0000000 )
                  (  1.0000000  0.0000000  0.0000000 )
                  (  0.0000000 -1.0000000  0.0000000 )


      isym = 13     inv. 180 deg rotation - cart. axis [1,1,0]   

 cryst.   s(13) = (    -1          0          0      )
                  (    -1          1          0      )
                  (    -1          0          1      )

 cart.    s(13) = (  0.0000000 -1.0000000  0.0000000 )
                  ( -1.0000000  0.0000000  0.0000000 )
                  (  0.0000000  0.0000000  1.0000000 )


      isym = 14     inv. 180 deg rotation - cart. axis [1,-1,0]  

 cryst.   s(14) = (     1          0          0      )
                  (     0          0          1      )
                  (     0          1          0      )

 cart.    s(14) = (  0.0000000  1.0000000  0.0000000 )
                  (  1.0000000  0.0000000  0.0000000 )
                  (  0.0000000  0.0000000  1.0000000 )


      isym = 15     inv.  90 deg rotation - cart. axis [0,0,-1]  

 cryst.   s(15) = (     0         -1          1      )
                  (     1         -1          0      )
                  (     0         -1          0      )

 cart.    s(15) = (  0.0000000 -1.0000000  0.0000000 )
                  (  1.0000000  0.0000000  0.0000000 )
                  (  0.0000000  0.0000000 -1.0000000 )


      isym = 16     inv.  90 deg rotation - cart. axis [0,0,1]   

 cryst.   s(16) = (     0          1         -1      )
                  (     0          0         -1      )
                  (     1          0         -1      )

 cart.    s(16) = (  0.0000000  1.0000000  0.0000000 )
                  ( -1.0000000  0.0000000  0.0000000 )
                  (  0.0000000  0.0000000 -1.0000000 )


      isym = 17     inv. 180 deg rotation - cart. axis [1,0,1]   

 cryst.   s(17) = (     1         -1          0      )
                  (     0         -1          0      )
                  (     0         -1          1      )

 cart.    s(17) = (  0.0000000  0.0000000 -1.0000000 )
                  (  0.0000000  1.0000000  0.0000000 )
                  ( -1.0000000  0.0000000  0.0000000 )


      isym = 18     inv. 180 deg rotation - cart. axis [-1,0,1]  

 cryst.   s(18) = (     0          0          1      )
                  (     0          1          0      )
                  (     1          0          0      )

 cart.    s(18) = (  0.0000000  0.0000000  1.0000000 )
                  (  0.0000000  1.0000000  0.0000000 )
                  (  1.0000000  0.0000000  0.0000000 )


      isym = 19     inv.  90 deg rotation - cart. axis [0,1,0]   

 cryst.   s(19) = (    -1          1          0      )
                  (    -1          0          1      )
                  (    -1          0          0      )

 cart.    s(19) = (  0.0000000  0.0000000 -1.0000000 )
                  (  0.0000000 -1.0000000  0.0000000 )
                  (  1.0000000  0.0000000  0.0000000 )


      isym = 20     inv.  90 deg rotation - cart. axis [0,-1,0]  

 cryst.   s(20) = (     0          0         -1      )
                  (     1          0         -1      )
                  (     0          1         -1      )

 cart.    s(20) = (  0.0000000  0.0000000  1.0000000 )
                  (  0.0000000 -1.0000000  0.0000000 )
                  ( -1.0000000  0.0000000  0.0000000 )


      isym = 21     inv. 180 deg rotation - cart. axis [0,1,1]   

 cryst.   s(21) = (     1          0         -1      )
                  (     0          1         -1      )
                  (     0          0         -1      )

 cart.    s(21) = (  1.0000000  0.0000000  0.0000000 )
                  (  0.0000000  0.0000000 -1.0000000 )
                  (  0.0000000 -1.0000000  0.0000000 )


      isym = 22     inv. 180 deg rotation - cart. axis [0,1,-1]  

 cryst.   s(22) = (     0          1          0      )
                  (     1          0          0      )
                  (     0          0          1      )

 cart.    s(22) = (  1.0000000  0.0000000  0.0000000 )
                  (  0.0000000  0.0000000  1.0000000 )
                  (  0.0000000  1.0000000  0.0000000 )


      isym = 23     inv.  90 deg rotation - cart. axis [-1,0,0]  

 cryst.   s(23) = (    -1          0          1      )
                  (    -1          0          0      )
                  (    -1          1          0      )

 cart.    s(23) = ( -1.0000000  0.0000000  0.0000000 )
                  (  0.0000000  0.0000000 -1.0000000 )
                  (  0.0000000  1.0000000  0.0000000 )


      isym = 24     inv.  90 deg rotation - cart. axis [1,0,0]   

 cryst.   s(24) = (     0         -1          0      )
                  (     0         -1          1      )
                  (     1         -1          0      )

 cart.    s(24) = ( -1.0000000  0.0000000  0.0000000 )
                  (  0.0000000  0.0000000  1.0000000 )
                  (  0.0000000 -1.0000000  0.0000000 )


   Cartesian axes

     site n.     atom                  positions (alat units)
         1        As     tau(   1) = (   0.3535534   0.3535534   0.3535534  )
         2        Ga     tau(   2) = (   0.0000000   0.0000000   0.0000000  )

   Crystallographic axes

     site n.     atom                  positions (cryst. coord.)
         1        As     tau(   1) = (  0.2500000  0.2500000  0.2500000  )
         2        Ga     tau(   2) = (  0.0000000  0.0000000  0.0000000  )

     number of k points=    84
                       cart. coord. in units 2pi/alat
        k(    1) = (   0.0000000   0.0000000   0.0000000), wk =   0.0009103
        k(    2) = (  -0.0543928   0.0543928   0.0543928), wk =   0.0072827
        k(    3) = (  -0.1087857   0.1087857   0.1087857), wk =   0.0072827
        k(    4) = (  -0.1631785   0.1631785   0.1631785), wk =   0.0072827
        k(    5) = (  -0.2175713   0.2175713   0.2175713), wk =   0.0072827
        k(    6) = (  -0.2719641   0.2719641   0.2719641), wk =   0.0072827
        k(    7) = (  -0.3263570   0.3263570   0.3263570), wk =   0.0072827
        k(    8) = (   0.0000000   0.0000000   0.1087857), wk =   0.0054620
        k(    9) = (  -0.0543928   0.0543928   0.1631785), wk =   0.0218480
        k(   10) = (  -0.1087857   0.1087857   0.2175713), wk =   0.0218480
        k(   11) = (  -0.1631785   0.1631785   0.2719641), wk =   0.0218480
        k(   12) = (  -0.2175713   0.2175713   0.3263570), wk =   0.0218480
        k(   13) = (  -0.2719641   0.2719641   0.3807498), wk =   0.0218480
        k(   14) = (   0.3807498  -0.3807498  -0.2719641), wk =   0.0218480
        k(   15) = (   0.3263570  -0.3263570  -0.2175713), wk =   0.0218480
        k(   16) = (   0.2719641  -0.2719641  -0.1631785), wk =   0.0218480
        k(   17) = (   0.2175713  -0.2175713  -0.1087857), wk =   0.0218480
        k(   18) = (   0.1631785  -0.1631785  -0.0543928), wk =   0.0218480
        k(   19) = (   0.1087857  -0.1087857   0.0000000), wk =   0.0109240
        k(   20) = (   0.0000000   0.0000000   0.2175713), wk =   0.0054620
        k(   21) = (  -0.0543928   0.0543928   0.2719641), wk =   0.0218480
        k(   22) = (  -0.1087857   0.1087857   0.3263570), wk =   0.0218480
        k(   23) = (  -0.1631785   0.1631785   0.3807498), wk =   0.0218480
        k(   24) = (  -0.2175713   0.2175713   0.4351426), wk =   0.0218480
        k(   25) = (   0.4351426  -0.4351426  -0.2175713), wk =   0.0218480
        k(   26) = (   0.3807498  -0.3807498  -0.1631785), wk =   0.0218480
        k(   27) = (   0.3263570  -0.3263570  -0.1087857), wk =   0.0218480
        k(   28) = (   0.2719641  -0.2719641  -0.0543928), wk =   0.0218480
        k(   29) = (   0.2175713  -0.2175713   0.0000000), wk =   0.0109240
        k(   30) = (   0.0000000   0.0000000   0.3263570), wk =   0.0054620
        k(   31) = (  -0.0543928   0.0543928   0.3807498), wk =   0.0218480
        k(   32) = (  -0.1087857   0.1087857   0.4351426), wk =   0.0218480
        k(   33) = (  -0.1631785   0.1631785   0.4895355), wk =   0.0218480
        k(   34) = (   0.4895355  -0.4895355  -0.1631785), wk =   0.0218480
        k(   35) = (   0.4351426  -0.4351426  -0.1087857), wk =   0.0218480
        k(   36) = (   0.3807498  -0.3807498  -0.0543928), wk =   0.0218480
        k(   37) = (   0.3263570  -0.3263570   0.0000000), wk =   0.0109240
        k(   38) = (   0.0000000   0.0000000   0.4351426), wk =   0.0054620
        k(   39) = (  -0.0543928   0.0543928   0.4895355), wk =   0.0218480
        k(   40) = (  -0.1087857   0.1087857   0.5439283), wk =   0.0218480
        k(   41) = (   0.5439283  -0.5439283  -0.1087857), wk =   0.0218480
        k(   42) = (   0.4895355  -0.4895355  -0.0543928), wk =   0.0218480
        k(   43) = (   0.4351426  -0.4351426   0.0000000), wk =   0.0109240
        k(   44) = (   0.0000000   0.0000000   0.5439283), wk =   0.0054620
        k(   45) = (  -0.0543928   0.0543928   0.5983211), wk =   0.0218480
        k(   46) = (   0.5983211  -0.5983211  -0.0543928), wk =   0.0218480
        k(   47) = (   0.5439283  -0.5439283   0.0000000), wk =   0.0109240
        k(   48) = (   0.0000000   0.0000000   0.6527140), wk =   0.0054620
        k(   49) = (   0.6527140  -0.6527140   0.0000000), wk =   0.0109240
        k(   50) = (   0.0000000   0.1087857   0.2175713), wk =   0.0218480
        k(   51) = (  -0.0543928   0.1631785   0.2719641), wk =   0.0436959
        k(   52) = (  -0.1087857   0.2175713   0.3263570), wk =   0.0436959
        k(   53) = (  -0.1631785   0.2719641   0.3807498), wk =   0.0436959
        k(   54) = (   0.4895355  -0.3807498  -0.2719641), wk =   0.0436959
        k(   55) = (   0.0000000   0.1087857   0.3263570), wk =   0.0218480
        k(   56) = (  -0.0543928   0.1631785   0.3807498), wk =   0.0436959
        k(   57) = (  -0.1087857   0.2175713   0.4351426), wk =   0.0436959
        k(   58) = (   0.5439283  -0.4351426  -0.2175713), wk =   0.0436959
        k(   59) = (   0.4895355  -0.3807498  -0.1631785), wk =   0.0436959
        k(   60) = (   0.4351426  -0.3263570  -0.1087857), wk =   0.0436959
        k(   61) = (   0.3807498  -0.2719641  -0.0543928), wk =   0.0436959
        k(   62) = (   0.3263570  -0.2175713   0.0000000), wk =   0.0218480
        k(   63) = (   0.0000000   0.1087857   0.4351426), wk =   0.0218480
        k(   64) = (  -0.0543928   0.1631785   0.4895355), wk =   0.0436959
        k(   65) = (   0.5983211  -0.4895355  -0.1631785), wk =   0.0436959
        k(   66) = (   0.5439283  -0.4351426  -0.1087857), wk =   0.0436959
        k(   67) = (   0.4895355  -0.3807498  -0.0543928), wk =   0.0436959
        k(   68) = (   0.4351426  -0.3263570   0.0000000), wk =   0.0218480
        k(   69) = (   0.0000000   0.1087857   0.5439283), wk =   0.0218480
        k(   70) = (   0.6527140  -0.5439283  -0.1087857), wk =   0.0436959
        k(   71) = (   0.5983211  -0.4895355  -0.0543928), wk =   0.0436959
        k(   72) = (   0.5439283  -0.4351426   0.0000000), wk =   0.0218480
        k(   73) = (   0.7071068  -0.5983211  -0.0543928), wk =   0.0218480
        k(   74) = (   0.6527140  -0.5439283   0.0000000), wk =   0.0218480
        k(   75) = (   0.0000000   0.2175713   0.4351426), wk =   0.0218480
        k(   76) = (   0.6527140  -0.4351426  -0.2175713), wk =   0.0436959
        k(   77) = (   0.5983211  -0.3807498  -0.1631785), wk =   0.0436959
        k(   78) = (   0.7071068  -0.4895355  -0.1631785), wk =   0.0218480
        k(   79) = (   0.6527140  -0.4351426  -0.1087857), wk =   0.0436959
        k(   80) = (   0.5983211  -0.3807498  -0.0543928), wk =   0.0436959
        k(   81) = (   0.5439283  -0.3263570   0.0000000), wk =   0.0218480
        k(   82) = (   0.7071068  -0.4895355  -0.0543928), wk =   0.0218480
        k(   83) = (   0.6527140  -0.4351426   0.0000000), wk =   0.0218480
        k(   84) = (   0.7071068  -0.3807498  -0.0543928), wk =   0.0218480

                       cryst. coord.
        k(    1) = (   0.0000000   0.0000000   0.0000000), wk =   0.0009103
        k(    2) = (   0.0000000   0.0000000   0.0769231), wk =   0.0072827
        k(    3) = (   0.0000000   0.0000000   0.1538462), wk =   0.0072827
        k(    4) = (   0.0000000   0.0000000   0.2307692), wk =   0.0072827
        k(    5) = (   0.0000000   0.0000000   0.3076923), wk =   0.0072827
        k(    6) = (   0.0000000   0.0000000   0.3846154), wk =   0.0072827
        k(    7) = (   0.0000000   0.0000000   0.4615385), wk =   0.0072827
        k(    8) = (   0.0000000   0.0769231   0.0769231), wk =   0.0054620
        k(    9) = (   0.0000000   0.0769231   0.1538462), wk =   0.0218480
        k(   10) = (   0.0000000   0.0769231   0.2307692), wk =   0.0218480
        k(   11) = (   0.0000000   0.0769231   0.3076923), wk =   0.0218480
        k(   12) = (   0.0000000   0.0769231   0.3846154), wk =   0.0218480
        k(   13) = (   0.0000000   0.0769231   0.4615385), wk =   0.0218480
        k(   14) = (   0.0000000   0.0769231  -0.4615385), wk =   0.0218480
        k(   15) = (   0.0000000   0.0769231  -0.3846154), wk =   0.0218480
        k(   16) = (   0.0000000   0.0769231  -0.3076923), wk =   0.0218480
        k(   17) = (   0.0000000   0.0769231  -0.2307692), wk =   0.0218480
        k(   18) = (   0.0000000   0.0769231  -0.1538462), wk =   0.0218480
        k(   19) = (   0.0000000   0.0769231  -0.0769231), wk =   0.0109240
        k(   20) = (   0.0000000   0.1538462   0.1538462), wk =   0.0054620
        k(   21) = (   0.0000000   0.1538462   0.2307692), wk =   0.0218480
        k(   22) = (   0.0000000   0.1538462   0.3076923), wk =   0.0218480
        k(   23) = (   0.0000000   0.1538462   0.3846154), wk =   0.0218480
        k(   24) = (   0.0000000   0.1538462   0.4615385), wk =   0.0218480
        k(   25) = (   0.0000000   0.1538462  -0.4615385), wk =   0.0218480
        k(   26) = (   0.0000000   0.1538462  -0.3846154), wk =   0.0218480
        k(   27) = (   0.0000000   0.1538462  -0.3076923), wk =   0.0218480
        k(   28) = (   0.0000000   0.1538462  -0.2307692), wk =   0.0218480
        k(   29) = (   0.0000000   0.1538462  -0.1538462), wk =   0.0109240
        k(   30) = (   0.0000000   0.2307692   0.2307692), wk =   0.0054620
        k(   31) = (   0.0000000   0.2307692   0.3076923), wk =   0.0218480
        k(   32) = (   0.0000000   0.2307692   0.3846154), wk =   0.0218480
        k(   33) = (   0.0000000   0.2307692   0.4615385), wk =   0.0218480
        k(   34) = (   0.0000000   0.2307692  -0.4615385), wk =   0.0218480
        k(   35) = (   0.0000000   0.2307692  -0.3846154), wk =   0.0218480
        k(   36) = (   0.0000000   0.2307692  -0.3076923), wk =   0.0218480
        k(   37) = (   0.0000000   0.2307692  -0.2307692), wk =   0.0109240
        k(   38) = (   0.0000000   0.3076923   0.3076923), wk =   0.0054620
        k(   39) = (   0.0000000   0.3076923   0.3846154), wk =   0.0218480
        k(   40) = (   0.0000000   0.3076923   0.4615385), wk =   0.0218480
        k(   41) = (   0.0000000   0.3076923  -0.4615385), wk =   0.0218480
        k(   42) = (   0.0000000   0.3076923  -0.3846154), wk =   0.0218480
        k(   43) = (   0.0000000   0.3076923  -0.3076923), wk =   0.0109240
        k(   44) = (   0.0000000   0.3846154   0.3846154), wk =   0.0054620
        k(   45) = (   0.0000000   0.3846154   0.4615385), wk =   0.0218480
        k(   46) = (   0.0000000   0.3846154  -0.4615385), wk =   0.0218480
        k(   47) = (   0.0000000   0.3846154  -0.3846154), wk =   0.0109240
        k(   48) = (   0.0000000   0.4615385   0.4615385), wk =   0.0054620
        k(   49) = (   0.0000000   0.4615385  -0.4615385), wk =   0.0109240
        k(   50) = (   0.0769231   0.1538462   0.2307692), wk =   0.0218480
        k(   51) = (   0.0769231   0.1538462   0.3076923), wk =   0.0436959
        k(   52) = (   0.0769231   0.1538462   0.3846154), wk =   0.0436959
        k(   53) = (   0.0769231   0.1538462   0.4615385), wk =   0.0436959
        k(   54) = (   0.0769231   0.1538462  -0.4615385), wk =   0.0436959
        k(   55) = (   0.0769231   0.2307692   0.3076923), wk =   0.0218480
        k(   56) = (   0.0769231   0.2307692   0.3846154), wk =   0.0436959
        k(   57) = (   0.0769231   0.2307692   0.4615385), wk =   0.0436959
        k(   58) = (   0.0769231   0.2307692  -0.4615385), wk =   0.0436959
        k(   59) = (   0.0769231   0.2307692  -0.3846154), wk =   0.0436959
        k(   60) = (   0.0769231   0.2307692  -0.3076923), wk =   0.0436959
        k(   61) = (   0.0769231   0.2307692  -0.2307692), wk =   0.0436959
        k(   62) = (   0.0769231   0.2307692  -0.1538462), wk =   0.0218480
        k(   63) = (   0.0769231   0.3076923   0.3846154), wk =   0.0218480
        k(   64) = (   0.0769231   0.3076923   0.4615385), wk =   0.0436959
        k(   65) = (   0.0769231   0.3076923  -0.4615385), wk =   0.0436959
        k(   66) = (   0.0769231   0.3076923  -0.3846154), wk =   0.0436959
        k(   67) = (   0.0769231   0.3076923  -0.3076923), wk =   0.0436959
        k(   68) = (   0.0769231   0.3076923  -0.2307692), wk =   0.0218480
        k(   69) = (   0.0769231   0.3846154   0.4615385), wk =   0.0218480
        k(   70) = (   0.0769231   0.3846154  -0.4615385), wk =   0.0436959
        k(   71) = (   0.0769231   0.3846154  -0.3846154), wk =   0.0436959
        k(   72) = (   0.0769231   0.3846154  -0.3076923), wk =   0.0218480
        k(   73) = (   0.0769231   0.4615385  -0.4615385), wk =   0.0218480
        k(   74) = (   0.0769231   0.4615385  -0.3846154), wk =   0.0218480
        k(   75) = (   0.1538462   0.3076923   0.4615385), wk =   0.0218480
        k(   76) = (   0.1538462   0.3076923  -0.4615385), wk =   0.0436959
        k(   77) = (   0.1538462   0.3076923  -0.3846154), wk =   0.0436959
        k(   78) = (   0.1538462   0.3846154  -0.4615385), wk =   0.0218480
        k(   79) = (   0.1538462   0.3846154  -0.3846154), wk =   0.0436959
        k(   80) = (   0.1538462   0.3846154  -0.3076923), wk =   0.0436959
        k(   81) = (   0.1538462   0.3846154  -0.2307692), wk =   0.0218480
        k(   82) = (   0.1538462   0.4615385  -0.3846154), wk =   0.0218480
        k(   83) = (   0.1538462   0.4615385  -0.3076923), wk =   0.0218480
        k(   84) = (   0.2307692   0.4615385  -0.3076923), wk =   0.0218480

     Dense  grid:    71537 G-vectors     FFT dimensions: (  60,  60,  60)

     Smooth grid:    25509 G-vectors     FFT dimensions: (  45,  45,  45)

     Dynamical RAM for                 wfc:       0.68 MB

     Dynamical RAM for     wfc (w. buffer):      57.60 MB

     Dynamical RAM for           str. fact:       2.18 MB

     Dynamical RAM for           local pot:       0.00 MB

     Dynamical RAM for          nlocal pot:       1.74 MB

     Dynamical RAM for                qrad:       3.80 MB

     Dynamical RAM for          rho,v,vnew:       8.22 MB

     Dynamical RAM for               rhoin:       2.74 MB

     Dynamical RAM for            rho*nmix:      17.47 MB

     Dynamical RAM for           G-vectors:       4.29 MB

     Dynamical RAM for          h,s,v(r/c):       0.04 MB

     Dynamical RAM for          <psi|beta>:       0.01 MB

     Dynamical RAM for                 psi:       1.36 MB

     Dynamical RAM for                hpsi:       1.36 MB

     Dynamical RAM for      wfcinit/wfcrot:       1.75 MB

     Estimated static dynamical RAM per process >      92.08 MB

     Estimated max dynamical RAM per process >     112.30 MB

     Initial potential from superposition of free atoms

     starting charge      27.9977, renormalised to      28.0000
     Starting wfcs are   18 randomized atomic wfcs

     total cpu time spent up to now is        2.9 secs

     Self-consistent Calculation

     iteration #  1     ecut=    70.00 Ry     beta= 0.40
     Davidson diagonalization with overlap

---- Real-time Memory Report at c_bands before calling an iterative solver
           122 MiB given to the printing process from OS
             0 MiB allocation reported by mallinfo(arena+hblkhd)
           491 MiB available memory on the node where the printing process lives
------------------
     ethr =  1.00E-02,  avg # of iterations =  2.0

     Threshold (ethr) on eigenvalues was too large:
     Diagonalizing with lowered threshold

     Davidson diagonalization with overlap

---- Real-time Memory Report at c_bands before calling an iterative solver
           125 MiB given to the printing process from OS
             0 MiB allocation reported by mallinfo(arena+hblkhd)
           482 MiB available memory on the node where the printing process lives
------------------
     ethr =  1.47E-04,  avg # of iterations =  3.2

     total cpu time spent up to now is       13.1 secs

     total energy              =    -364.70810364 Ry
     estimated scf accuracy    <       0.04515729 Ry

     iteration #  2     ecut=    70.00 Ry     beta= 0.40
     Davidson diagonalization with overlap

---- Real-time Memory Report at c_bands before calling an iterative solver
           133 MiB given to the printing process from OS
             0 MiB allocation reported by mallinfo(arena+hblkhd)
           477 MiB available memory on the node where the printing process lives
------------------
     ethr =  1.61E-04,  avg # of iterations =  2.0

     total cpu time spent up to now is       17.8 secs

     total energy              =    -364.71007930 Ry
     estimated scf accuracy    <       0.00773458 Ry

     iteration #  3     ecut=    70.00 Ry     beta= 0.40
     Davidson diagonalization with overlap

---- Real-time Memory Report at c_bands before calling an iterative solver
           133 MiB given to the printing process from OS
             0 MiB allocation reported by mallinfo(arena+hblkhd)
           474 MiB available memory on the node where the printing process lives
------------------
     ethr =  2.76E-05,  avg # of iterations =  3.4

     total cpu time spent up to now is       22.5 secs

     total energy              =    -364.71063915 Ry
     estimated scf accuracy    <       0.00124141 Ry

     iteration #  4     ecut=    70.00 Ry     beta= 0.40
     Davidson diagonalization with overlap

---- Real-time Memory Report at c_bands before calling an iterative solver
           134 MiB given to the printing process from OS
             0 MiB allocation reported by mallinfo(arena+hblkhd)
           473 MiB available memory on the node where the printing process lives
------------------
     ethr =  4.43E-06,  avg # of iterations =  3.4

     total cpu time spent up to now is       27.7 secs

     total energy              =    -364.71079487 Ry
     estimated scf accuracy    <       0.00022366 Ry

     iteration #  5     ecut=    70.00 Ry     beta= 0.40
     Davidson diagonalization with overlap

---- Real-time Memory Report at c_bands before calling an iterative solver
           135 MiB given to the printing process from OS
             0 MiB allocation reported by mallinfo(arena+hblkhd)
           472 MiB available memory on the node where the printing process lives
------------------
     ethr =  7.99E-07,  avg # of iterations =  4.0

     total cpu time spent up to now is       33.6 secs

     total energy              =    -364.71085161 Ry
     estimated scf accuracy    <       0.00001153 Ry

     iteration #  6     ecut=    70.00 Ry     beta= 0.40
     Davidson diagonalization with overlap

---- Real-time Memory Report at c_bands before calling an iterative solver
           136 MiB given to the printing process from OS
             0 MiB allocation reported by mallinfo(arena+hblkhd)
           468 MiB available memory on the node where the printing process lives
------------------
     ethr =  4.12E-08,  avg # of iterations =  2.1

     total cpu time spent up to now is       38.6 secs

     total energy              =    -364.71085126 Ry
     estimated scf accuracy    <       0.00000284 Ry

     iteration #  7     ecut=    70.00 Ry     beta= 0.40
     Davidson diagonalization with overlap

---- Real-time Memory Report at c_bands before calling an iterative solver
           137 MiB given to the printing process from OS
             0 MiB allocation reported by mallinfo(arena+hblkhd)
           466 MiB available memory on the node where the printing process lives
------------------
     ethr =  1.01E-08,  avg # of iterations =  3.9

     total cpu time spent up to now is       44.0 secs

     total energy              =    -364.71085203 Ry
     estimated scf accuracy    <       0.00000007 Ry

     iteration #  8     ecut=    70.00 Ry     beta= 0.40
     Davidson diagonalization with overlap

---- Real-time Memory Report at c_bands before calling an iterative solver
           137 MiB given to the printing process from OS
             0 MiB allocation reported by mallinfo(arena+hblkhd)
           465 MiB available memory on the node where the printing process lives
------------------
     ethr =  2.50E-10,  avg # of iterations =  5.1

     total cpu time spent up to now is       51.0 secs

     total energy              =    -364.71085204 Ry
     estimated scf accuracy    <       0.00000007 Ry

     iteration #  9     ecut=    70.00 Ry     beta= 0.40
     Davidson diagonalization with overlap

---- Real-time Memory Report at c_bands before calling an iterative solver
           138 MiB given to the printing process from OS
             0 MiB allocation reported by mallinfo(arena+hblkhd)
           469 MiB available memory on the node where the printing process lives
------------------
     ethr =  2.41E-10,  avg # of iterations =  3.6

     total cpu time spent up to now is       56.9 secs

     total energy              =    -364.71085205 Ry
     estimated scf accuracy    <          1.0E-09 Ry

     iteration # 10     ecut=    70.00 Ry     beta= 0.40
     Davidson diagonalization with overlap

---- Real-time Memory Report at c_bands before calling an iterative solver
           139 MiB given to the printing process from OS
             0 MiB allocation reported by mallinfo(arena+hblkhd)
           471 MiB available memory on the node where the printing process lives
------------------
     ethr =  3.61E-12,  avg # of iterations =  3.9

     total cpu time spent up to now is       62.1 secs

     total energy              =    -364.71085205 Ry
     estimated scf accuracy    <          1.4E-09 Ry

     iteration # 11     ecut=    70.00 Ry     beta= 0.40
     Davidson diagonalization with overlap

---- Real-time Memory Report at c_bands before calling an iterative solver
           139 MiB given to the printing process from OS
             0 MiB allocation reported by mallinfo(arena+hblkhd)
           469 MiB available memory on the node where the printing process lives
------------------
     ethr =  3.61E-12,  avg # of iterations =  2.0

     total cpu time spent up to now is       66.6 secs

     End of self-consistent calculation

          k = 0.0000 0.0000 0.0000 (  3143 PWs)   bands (ev):

   -27.5088 -27.5088 -27.5088 -27.5024 -27.5024  -7.0322  -7.0322  -7.0322
    -6.9662  -6.9662  -4.6512   7.6955   7.7847   7.7847

     occupation numbers 
     1.0000   1.0000   1.0000   1.0000   1.0000   1.0000   1.0000   1.0000
     1.0000   1.0000   1.0000   1.0000   1.0000   1.0000

          k =-0.0544 0.0544 0.0544 (  3173 PWs)   bands (ev):

   -27.5109 -27.5104 -27.5104 -27.5034 -27.5034  -7.0369  -7.0315  -7.0315
    -6.9665  -6.9665  -4.5868   6.5117   7.6945   7.6945

     occupation numbers 
     1.0000   1.0000   1.0000   1.0000   1.0000   1.0000   1.0000   1.0000
     1.0000   1.0000   1.0000   1.0000   1.0000   1.0000

          k =-0.1088 0.1088 0.1088 (  3170 PWs)   bands (ev):

   -27.5104 -27.5103 -27.5103 -27.5028 -27.5028  -7.0478  -7.0284  -7.0284
    -6.9664  -6.9664  -4.3982   5.2165   7.4742   7.4742

     occupation numbers 
     1.0000   1.0000   1.0000   1.0000   1.0000   1.0000   1.0000   1.0000
     1.0000   1.0000   1.0000   1.0000   1.0000   1.0000

          k =-0.1632 0.1632 0.1632 (  3164 PWs)   bands (ev):

   -27.5100 -27.5099 -27.5099 -27.5026 -27.5026  -7.0625  -7.0242  -7.0242
    -6.9661  -6.9661  -4.1013   3.9654   7.2150   7.2150

     occupation numbers 
     1.0000   1.0000   1.0000   1.0000   1.0000   1.0000   1.0000   1.0000
     1.0000   1.0000   1.0000   1.0000   1.0000   1.0000

          k =-0.2176 0.2176 0.2176 (  3167 PWs)   bands (ev):

   -27.5112 -27.5112 -27.5087 -27.5025 -27.5025  -7.0770  -7.0208  -7.0208
    -6.9653  -6.9653  -3.7289   2.8442   6.9832   6.9832

     occupation numbers 
     1.0000   1.0000   1.0000   1.0000   1.0000   1.0000   1.0000   1.0000
     1.0000   1.0000   1.0000   1.0000   1.0000   1.0000

          k =-0.2720 0.2720 0.2720 (  3163 PWs)   bands (ev):

   -27.5113 -27.5104 -27.5104 -27.5017 -27.5017  -7.0894  -7.0180  -7.0180
    -6.9639  -6.9639  -3.3485   1.9507   6.8148   6.8148

     occupation numbers 
     1.0000   1.0000   1.0000   1.0000   1.0000   1.0000   1.0000   1.0000
     1.0000   1.0000   1.0000   1.0000   1.0000   1.0000

          k =-0.3264 0.3264 0.3264 (  3169 PWs)   bands (ev):

   -27.5127 -27.5104 -27.5104 -27.5022 -27.5022  -7.0962  -7.0167  -7.0167
    -6.9632  -6.9632  -3.0858   1.4277   6.7270   6.7270

     occupation numbers 
     1.0000   1.0000   1.0000   1.0000   1.0000   1.0000   1.0000   1.0000
     1.0000   1.0000   1.0000   1.0000   1.0000   1.0000

          k = 0.0000 0.0000 0.1088 (  3175 PWs)   bands (ev):

   -27.5113 -27.5113 -27.5101 -27.5035 -27.5027  -7.0393  -7.0307  -7.0307
    -6.9672  -6.9656  -4.5653   6.4260   7.5193   7.5193

     occupation numbers 
     1.0000   1.0000   1.0000   1.0000   1.0000   1.0000   1.0000   1.0000
     1.0000   1.0000   1.0000   1.0000   1.0000   1.0000

          k =-0.0544 0.0544 0.1632 (  3173 PWs)   bands (ev):

   -27.5112 -27.5107 -27.5097 -27.5033 -27.5026  -7.0485  -7.0279  -7.0275
    -6.9679  -6.9652  -4.4180   5.4645   7.2504   7.3154

     occupation numbers 
     1.0000   1.0000   1.0000   1.0000   1.0000   1.0000   1.0000   1.0000
     1.0000   1.0000   1.0000   1.0000   1.0000   1.0000

          k =-0.1088 0.1088 0.2176 (  3171 PWs)   bands (ev):

   -27.5110 -27.5103 -27.5099 -27.5029 -27.5026  -7.0613  -7.0245  -7.0234
    -6.9685  -6.9645  -4.1565   4.2966   6.9781   7.0401

     occupation numbers 
     1.0000   1.0000   1.0000   1.0000   1.0000   1.0000   1.0000   1.0000
     1.0000   1.0000   1.0000   1.0000   1.0000   1.0000

          k =-0.1632 0.1632 0.2720 (  3180 PWs)   bands (ev):

   -27.5119 -27.5108 -27.5103 -27.5037 -27.5028  -7.0756  -7.0211  -7.0197
    -6.9682  -6.9641  -3.8067   3.1737   6.7297   6.7595

     occupation numbers 
     1.0000   1.0000   1.0000   1.0000   1.0000   1.0000   1.0000   1.0000
     1.0000   1.0000   1.0000   1.0000   1.0000   1.0000

          k =-0.2176 0.2176 0.3264 (  3173 PWs)   bands (ev):

   -27.5113 -27.5108 -27.5105 -27.5028 -27.5025  -7.0877  -7.0182  -7.0168
    -6.9670  -6.9631  -3.4217   2.2192   6.4554   6.6238

     occupation numbers 
     1.0000   1.0000   1.0000   1.0000   1.0000   1.0000   1.0000   1.0000
     1.0000   1.0000   1.0000   1.0000   1.0000   1.0000

          k =-0.2720 0.2720 0.3807 (  3179 PWs)   bands (ev):

   -27.5125 -27.5115 -27.5112 -27.5026 -27.5024  -7.0960  -7.0167  -7.0154
    -6.9653  -6.9628  -3.1055   1.5692   6.2548   6.5829

     occupation numbers 
     1.0000   1.0000   1.0000   1.0000   1.0000   1.0000   1.0000   1.0000
     1.0000   1.0000   1.0000   1.0000   1.0000   1.0000

          k = 0.3807-0.3807-0.2720 (  3165 PWs)   bands (ev):

   -27.5118 -27.5107 -27.5100 -27.5026 -27.5017  -7.0978  -7.0159  -7.0150
    -6.9641  -6.9632  -3.0089   1.3887   6.1469   6.6382

     occupation numbers 
     1.0000   1.0000   1.0000   1.0000   1.0000   1.0000   1.0000   1.0000
     1.0000   1.0000   1.0000   1.0000   1.0000   1.0000

          k = 0.3264-0.3264-0.2176 (  3173 PWs)   bands (ev):

   -27.5120 -27.5111 -27.5111 -27.5023 -27.5019  -7.0936  -7.0165  -7.0164
    -6.9648  -6.9636  -3.1949   1.7439   6.1423   6.7826

     occupation numbers 
     1.0000   1.0000   1.0000   1.0000   1.0000   1.0000   1.0000   1.0000
     1.0000   1.0000   1.0000   1.0000   1.0000   1.0000

          k = 0.2720-0.2720-0.1632 (  3174 PWs)   bands (ev):

   -27.5115 -27.5114 -27.5096 -27.5030 -27.5026  -7.0834  -7.0193  -7.0181
    -6.9665  -6.9642  -3.5498   2.5135   6.2470   7.0005

     occupation numbers 
     1.0000   1.0000   1.0000   1.0000   1.0000   1.0000   1.0000   1.0000
     1.0000   1.0000   1.0000   1.0000   1.0000   1.0000

          k = 0.2176-0.2176-0.1088 (  3168 PWs)   bands (ev):

   -27.5106 -27.5103 -27.5100 -27.5027 -27.5025  -7.0702  -7.0228  -7.0209
    -6.9675  -6.9648  -3.9315   3.5336   6.4634   7.2635

     occupation numbers 
     1.0000   1.0000   1.0000   1.0000   1.0000   1.0000   1.0000   1.0000
     1.0000   1.0000   1.0000   1.0000   1.0000   1.0000

          k = 0.1632-0.1632-0.0544 (  3176 PWs)   bands (ev):

   -27.5117 -27.5105 -27.5096 -27.5032 -27.5029  -7.0561  -7.0270  -7.0245
    -6.9677  -6.9654  -4.2558   4.6706   6.7921   7.5210

     occupation numbers 
     1.0000   1.0000   1.0000   1.0000   1.0000   1.0000   1.0000   1.0000
     1.0000   1.0000   1.0000   1.0000   1.0000   1.0000

          k = 0.1088-0.1088 0.0000 (  3181 PWs)   bands (ev):

   -27.5119 -27.5105 -27.5103 -27.5042 -27.5031  -7.0441  -7.0303  -7.0286
    -6.9674  -6.9658  -4.4809   5.7642   7.2374   7.6927

     occupation numbers 
     1.0000   1.0000   1.0000   1.0000   1.0000   1.0000   1.0000   1.0000
     1.0000   1.0000   1.0000   1.0000   1.0000   1.0000

          k = 0.0000 0.0000 0.2176 (  3175 PWs)   bands (ev):

   -27.5115 -27.5105 -27.5105 -27.5029 -27.5028  -7.0569  -7.0242  -7.0242
    -6.9699  -6.9640  -4.3135   5.1497   6.9476   6.9476

     occupation numbers 
     1.0000   1.0000   1.0000   1.0000   1.0000   1.0000   1.0000   1.0000
     1.0000   1.0000   1.0000   1.0000   1.0000   1.0000

          k =-0.0544 0.0544 0.2720 (  3175 PWs)   bands (ev):

   -27.5113 -27.5109 -27.5105 -27.5028 -27.5027  -7.0682  -7.0205  -7.0200
    -6.9714  -6.9630  -4.0926   4.3384   6.6205   6.6565

     occupation numbers 
     1.0000   1.0000   1.0000   1.0000   1.0000   1.0000   1.0000   1.0000
     1.0000   1.0000   1.0000   1.0000   1.0000   1.0000

          k =-0.1088 0.1088 0.3264 (  3186 PWs)   bands (ev):

   -27.5117 -27.5117 -27.5105 -27.5038 -27.5033  -7.0803  -7.0175  -7.0160
    -6.9722  -6.9625  -3.7754   3.3734   6.2198   6.4321

     occupation numbers 
     1.0000   1.0000   1.0000   1.0000   1.0000   1.0000   1.0000   1.0000
     1.0000   1.0000   1.0000   1.0000   1.0000   1.0000

          k =-0.1632 0.1632 0.3807 (  3171 PWs)   bands (ev):

   -27.5108 -27.5106 -27.5105 -27.5031 -27.5022  -7.0908  -7.0153  -7.0126
    -6.9712  -6.9617  -3.4038   2.4622   5.8243   6.3026

     occupation numbers 
     1.0000   1.0000   1.0000   1.0000   1.0000   1.0000   1.0000   1.0000
     1.0000   1.0000   1.0000   1.0000   1.0000   1.0000

          k =-0.2176 0.2176 0.4351 (  3183 PWs)   bands (ev):

   -27.5124 -27.5113 -27.5109 -27.5033 -27.5031  -7.0985  -7.0143  -7.0111
    -6.9698  -6.9619  -3.0612   1.7609   5.5035   6.2796

     occupation numbers 
     1.0000   1.0000   1.0000   1.0000   1.0000   1.0000   1.0000   1.0000
     1.0000   1.0000   1.0000   1.0000   1.0000   1.0000

          k = 0.4351-0.4351-0.2176 (  3166 PWs)   bands (ev):

   -27.5121 -27.5103 -27.5098 -27.5030 -27.5021  -7.1010  -7.0137  -7.0107
    -6.9675  -6.9629  -2.8851   1.4406   5.2913   6.3637

     occupation numbers 
     1.0000   1.0000   1.0000   1.0000   1.0000   1.0000   1.0000   1.0000
     1.0000   1.0000   1.0000   1.0000   1.0000   1.0000

          k = 0.3807-0.3807-0.1632 (  3173 PWs)   bands (ev):

   -27.5123 -27.5109 -27.5108 -27.5033 -27.5019  -7.0986  -7.0142  -7.0123
    -6.9658  -6.9650  -2.9816   1.6168   5.2086   6.5453

     occupation numbers 
     1.0000   1.0000   1.0000   1.0000   1.0000   1.0000   1.0000   1.0000
     1.0000   1.0000   1.0000   1.0000   1.0000   1.0000

          k = 0.3264-0.3264-0.1088 (  3158 PWs)   bands (ev):

   -27.5108 -27.5102 -27.5093 -27.5027 -27.5013  -7.0908  -7.0152  -7.0150
    -6.9669  -6.9647  -3.2885   2.2155   5.2773   6.8035

     occupation numbers 
     1.0000   1.0000   1.0000   1.0000   1.0000   1.0000   1.0000   1.0000
     1.0000   1.0000   1.0000   1.0000   1.0000   1.0000

          k = 0.2720-0.2720-0.0544 (  3158 PWs)   bands (ev):

   -27.5099 -27.5099 -27.5096 -27.5024 -27.5020  -7.0800  -7.0190  -7.0171
    -6.9682  -6.9644  -3.6621   3.0493   5.5323   7.1002

     occupation numbers 
     1.0000   1.0000   1.0000   1.0000   1.0000   1.0000   1.0000   1.0000
     1.0000   1.0000   1.0000   1.0000   1.0000   1.0000

          k = 0.2176-0.2176 0.0000 (  3180 PWs)   bands (ev):

   -27.5118 -27.5108 -27.5098 -27.5037 -27.5031  -7.0680  -7.0237  -7.0204
    -6.9688  -6.9649  -4.0019   3.9240   6.0318   7.3705

     occupation numbers 
     1.0000   1.0000   1.0000   1.0000   1.0000   1.0000   1.0000   1.0000
     1.0000   1.0000   1.0000   1.0000   1.0000   1.0000

          k = 0.0000 0.0000 0.3264 (  3179 PWs)   bands (ev):

   -27.5115 -27.5107 -27.5107 -27.5036 -27.5031  -7.0787  -7.0154  -7.0154
    -6.9744  -6.9618  -3.9141   3.9332   6.3456   6.3456

     occupation numbers 
     1.0000   1.0000   1.0000   1.0000   1.0000   1.0000   1.0000   1.0000
     1.0000   1.0000   1.0000   1.0000   1.0000   1.0000

          k =-0.0544 0.0544 0.3807 (  3163 PWs)   bands (ev):

   -27.5111 -27.5101 -27.5099 -27.5022 -27.5019  -7.0894  -7.0112  -7.0105
    -6.9758  -6.9605  -3.6364   3.2489   5.9715   6.1037

     occupation numbers 
     1.0000   1.0000   1.0000   1.0000   1.0000   1.0000   1.0000   1.0000
     1.0000   1.0000   1.0000   1.0000   1.0000   1.0000

          k =-0.1088 0.1088 0.4351 (  3173 PWs)   bands (ev):

   -27.5117 -27.5107 -27.5097 -27.5034 -27.5025  -7.0984  -7.0093  -7.0070
    -6.9763  -6.9603  -3.2934   2.5085   5.4705   5.9613

     occupation numbers 
     1.0000   1.0000   1.0000   1.0000   1.0000   1.0000   1.0000   1.0000
     1.0000   1.0000   1.0000   1.0000   1.0000   1.0000

          k =-0.1632 0.1632 0.4895 (  3173 PWs)   bands (ev):

   -27.5115 -27.5108 -27.5097 -27.5035 -27.5031  -7.1042  -7.0091  -7.0051
    -6.9750  -6.9607  -2.9521   1.8725   4.9983   5.9322

     occupation numbers 
     1.0000   1.0000   1.0000   1.0000   1.0000   1.0000   1.0000   1.0000
     1.0000   1.0000   1.0000   1.0000   1.0000   1.0000

          k = 0.4895-0.4895-0.1632 (  3172 PWs)   bands (ev):

   -27.5118 -27.5110 -27.5102 -27.5033 -27.5028  -7.1064  -7.0098  -7.0050
    -6.9724  -6.9620  -2.7285   1.5026   4.6493   6.0180

     occupation numbers 
     1.0000   1.0000   1.0000   1.0000   1.0000   1.0000   1.0000   1.0000
     1.0000   1.0000   1.0000   1.0000   1.0000   1.0000

          k = 0.4351-0.4351-0.1088 (  3176 PWs)   bands (ev):

   -27.5121 -27.5112 -27.5108 -27.5036 -27.5029  -7.1044  -7.0110  -7.0067
    -6.9697  -6.9645  -2.7416   1.5316   4.4726   6.2101

     occupation numbers 
     1.0000   1.0000   1.0000   1.0000   1.0000   1.0000   1.0000   1.0000
     1.0000   1.0000   1.0000   1.0000   1.0000   1.0000

          k = 0.3807-0.3807-0.0544 (  3165 PWs)   bands (ev):

   -27.5114 -27.5106 -27.5102 -27.5031 -27.5018  -7.0986  -7.0125  -7.0099
    -6.9671  -6.9666  -2.9816   1.9268   4.5165   6.4868

     occupation numbers 
     1.0000   1.0000   1.0000   1.0000   1.0000   1.0000   1.0000   1.0000
     1.0000   1.0000   1.0000   1.0000   1.0000   1.0000

          k = 0.3264-0.3264 0.0000 (  3152 PWs)   bands (ev):

   -27.5101 -27.5093 -27.5091 -27.5029 -27.5018  -7.0899  -7.0142  -7.0141
    -6.9680  -6.9653  -3.3248   2.4951   4.8521   6.8072

     occupation numbers 
     1.0000   1.0000   1.0000   1.0000   1.0000   1.0000   1.0000   1.0000
     1.0000   1.0000   1.0000   1.0000   1.0000   1.0000

          k = 0.0000 0.0000 0.4351 (  3158 PWs)   bands (ev):

   -27.5113 -27.5091 -27.5091 -27.5021 -27.5021  -7.0995  -7.0053  -7.0053
    -6.9791  -6.9591  -3.4021   2.8072   5.8393   5.8393

     occupation numbers 
     1.0000   1.0000   1.0000   1.0000   1.0000   1.0000   1.0000   1.0000
     1.0000   1.0000   1.0000   1.0000   1.0000   1.0000

          k =-0.0544 0.0544 0.4895 (  3175 PWs)   bands (ev):

   -27.5115 -27.5105 -27.5103 -27.5032 -27.5030  -7.1076  -7.0024  -7.0017
    -6.9809  -6.9586  -3.1010   2.2547   5.4709   5.6740

     occupation numbers 
     1.0000   1.0000   1.0000   1.0000   1.0000   1.0000   1.0000   1.0000
     1.0000   1.0000   1.0000   1.0000   1.0000   1.0000

          k =-0.1088 0.1088 0.5439 (  3174 PWs)   bands (ev):

   -27.5111 -27.5106 -27.5106 -27.5033 -27.5031  -7.1122  -7.0022  -6.9996
    -6.9801  -6.9589  -2.7892   1.7583   4.9252   5.6245

     occupation numbers 
     1.0000   1.0000   1.0000   1.0000   1.0000   1.0000   1.0000   1.0000
     1.0000   1.0000   1.0000   1.0000   1.0000   1.0000

          k = 0.5439-0.5439-0.1088 (  3173 PWs)   bands (ev):

   -27.5113 -27.5108 -27.5102 -27.5033 -27.5033  -7.1131  -7.0041  -6.9993
    -6.9777  -6.9604  -2.5621   1.4472   4.4277   5.6949

     occupation numbers 
     1.0000   1.0000   1.0000   1.0000   1.0000   1.0000   1.0000   1.0000
     1.0000   1.0000   1.0000   1.0000   1.0000   1.0000

          k = 0.4895-0.4895-0.0544 (  3176 PWs)   bands (ev):

   -27.5118 -27.5112 -27.5109 -27.5036 -27.5029  -7.1107  -7.0070  -7.0012
    -6.9742  -6.9628  -2.5246   1.4157   4.1252   5.8784

     occupation numbers 
     1.0000   1.0000   1.0000   1.0000   1.0000   1.0000   1.0000   1.0000
     1.0000   1.0000   1.0000   1.0000   1.0000   1.0000

          k = 0.4351-0.4351 0.0000 (  3170 PWs)   bands (ev):

   -27.5119 -27.5106 -27.5104 -27.5030 -27.5027  -7.1055  -7.0098  -7.0048
    -6.9704  -6.9652  -2.6939   1.6285   4.1259   6.1553

     occupation numbers 
     1.0000   1.0000   1.0000   1.0000   1.0000   1.0000   1.0000   1.0000
     1.0000   1.0000   1.0000   1.0000   1.0000   1.0000

          k = 0.0000 0.0000 0.5439 (  3178 PWs)   bands (ev):

   -27.5112 -27.5105 -27.5105 -27.5035 -27.5032  -7.1153  -6.9975  -6.9975
    -6.9840  -6.9574  -2.8531   1.8454   5.4817   5.4817

     occupation numbers 
     1.0000   1.0000   1.0000   1.0000   1.0000   1.0000   1.0000   1.0000
     1.0000   1.0000   1.0000   1.0000   1.0000   1.0000

          k =-0.0544 0.0544 0.5983 (  3176 PWs)   bands (ev):

   -27.5115 -27.5108 -27.5107 -27.5030 -27.5026  -7.1196  -6.9963  -6.9952
    -6.9842  -6.9570  -2.6016   1.4754   5.1593   5.4048

     occupation numbers 
     1.0000   1.0000   1.0000   1.0000   1.0000   1.0000   1.0000   1.0000
     1.0000   1.0000   1.0000   1.0000   1.0000   1.0000

          k = 0.5983-0.5983-0.0544 (  3178 PWs)   bands (ev):

   -27.5110 -27.5110 -27.5107 -27.5042 -27.5027  -7.1196  -6.9984  -6.9951
    -6.9824  -6.9582  -2.4259   1.2726   4.6419   5.4502

     occupation numbers 
     1.0000   1.0000   1.0000   1.0000   1.0000   1.0000   1.0000   1.0000
     1.0000   1.0000   1.0000   1.0000   1.0000   1.0000

          k = 0.5439-0.5439 0.0000 (  3192 PWs)   bands (ev):

   -27.5124 -27.5118 -27.5113 -27.5052 -27.5035  -7.1166  -7.0025  -6.9974
    -6.9791  -6.9606  -2.3989   1.2818   4.2238   5.6135

     occupation numbers 
     1.0000   1.0000   1.0000   1.0000   1.0000   1.0000   1.0000   1.0000
     1.0000   1.0000   1.0000   1.0000   1.0000   1.0000

          k = 0.0000 0.0000 0.6527 (  3194 PWs)   bands (ev):

   -27.5122 -27.5113 -27.5113 -27.5052 -27.5025  -7.1241  -6.9930  -6.9930
    -6.9870  -6.9561  -2.4424   1.2263   5.2978   5.2978

     occupation numbers 
     1.0000   1.0000   1.0000   1.0000   1.0000   1.0000   1.0000   1.0000
     1.0000   1.0000   1.0000   1.0000   1.0000   1.0000

          k = 0.6527-0.6527 0.0000 (  3198 PWs)   bands (ev):

   -27.5121 -27.5120 -27.5116 -27.5051 -27.5032  -7.1240  -6.9943  -6.9931
    -6.9859  -6.9567  -2.3747   1.1541   5.0538   5.3134

     occupation numbers 
     1.0000   1.0000   1.0000   1.0000   1.0000   1.0000   1.0000   1.0000
     1.0000   1.0000   1.0000   1.0000   1.0000   1.0000

          k = 0.0000 0.1088 0.2176 (  3177 PWs)   bands (ev):

   -27.5114 -27.5111 -27.5100 -27.5031 -27.5029  -7.0590  -7.0250  -7.0235
    -6.9692  -6.9644  -4.2340   4.7209   6.6451   7.2394

     occupation numbers 
     1.0000   1.0000   1.0000   1.0000   1.0000   1.0000   1.0000   1.0000
     1.0000   1.0000   1.0000   1.0000   1.0000   1.0000

          k =-0.0544 0.1632 0.2720 (  3175 PWs)   bands (ev):

   -27.5111 -27.5107 -27.5103 -27.5033 -27.5028  -7.0715  -7.0215  -7.0194
    -6.9699  -6.9638  -3.9441   3.7602   6.1510   7.0374

     occupation numbers 
     1.0000   1.0000   1.0000   1.0000   1.0000   1.0000   1.0000   1.0000
     1.0000   1.0000   1.0000   1.0000   1.0000   1.0000

          k =-0.1088 0.2176 0.3264 (  3167 PWs)   bands (ev):

   -27.5111 -27.5103 -27.5097 -27.5030 -27.5021  -7.0838  -7.0179  -7.0160
    -6.9693  -6.9632  -3.5812   2.7873   5.8206   6.7802

     occupation numbers 
     1.0000   1.0000   1.0000   1.0000   1.0000   1.0000   1.0000   1.0000
     1.0000   1.0000   1.0000   1.0000   1.0000   1.0000

          k =-0.1632 0.2720 0.3807 (  3174 PWs)   bands (ev):

   -27.5116 -27.5109 -27.5107 -27.5033 -27.5022  -7.0938  -7.0158  -7.0136
    -6.9680  -6.9630  -3.2119   1.9722   5.6219   6.5624

     occupation numbers 
     1.0000   1.0000   1.0000   1.0000   1.0000   1.0000   1.0000   1.0000
     1.0000   1.0000   1.0000   1.0000   1.0000   1.0000

          k = 0.4895-0.3807-0.2720 (  3171 PWs)   bands (ev):

   -27.5120 -27.5107 -27.5105 -27.5029 -27.5022  -7.0993  -7.0148  -7.0123
    -6.9665  -6.9632  -2.9580   1.4860   5.5299   6.4398

     occupation numbers 
     1.0000   1.0000   1.0000   1.0000   1.0000   1.0000   1.0000   1.0000
     1.0000   1.0000   1.0000   1.0000   1.0000   1.0000

          k = 0.0000 0.1088 0.3264 (  3175 PWs)   bands (ev):

   -27.5109 -27.5107 -27.5106 -27.5032 -27.5030  -7.0792  -7.0167  -7.0155
    -6.9732  -6.9621  -3.8431   3.6689   6.0388   6.5433

     occupation numbers 
     1.0000   1.0000   1.0000   1.0000   1.0000   1.0000   1.0000   1.0000
     1.0000   1.0000   1.0000   1.0000   1.0000   1.0000

          k =-0.0544 0.1632 0.3807 (  3171 PWs)   bands (ev):

   -27.5114 -27.5104 -27.5101 -27.5034 -27.5022  -7.0897  -7.0138  -7.0114
    -6.9736  -6.9616  -3.5113   2.8839   5.5505   6.3267

     occupation numbers 
     1.0000   1.0000   1.0000   1.0000   1.0000   1.0000   1.0000   1.0000
     1.0000   1.0000   1.0000   1.0000   1.0000   1.0000

          k =-0.1088 0.2176 0.4351 (  3167 PWs)   bands (ev):

   -27.5110 -27.5101 -27.5098 -27.5033 -27.5025  -7.0978  -7.0124  -7.0084
    -6.9728  -6.9615  -3.1498   2.1411   5.1830   6.1342

     occupation numbers 
     1.0000   1.0000   1.0000   1.0000   1.0000   1.0000   1.0000   1.0000
     1.0000   1.0000   1.0000   1.0000   1.0000   1.0000

          k = 0.5439-0.4351-0.2176 (  3166 PWs)   bands (ev):

   -27.5114 -27.5106 -27.5101 -27.5028 -27.5022  -7.1029  -7.0120  -7.0070
    -6.9709  -6.9621  -2.8585   1.6125   4.9268   6.0567

     occupation numbers 
     1.0000   1.0000   1.0000   1.0000   1.0000   1.0000   1.0000   1.0000
     1.0000   1.0000   1.0000   1.0000   1.0000   1.0000

          k = 0.4895-0.3807-0.1632 (  3166 PWs)   bands (ev):

   -27.5116 -27.5107 -27.5102 -27.5031 -27.5018  -7.1036  -7.0123  -7.0071
    -6.9692  -6.9634  -2.7738   1.4713   4.7885   6.1166

     occupation numbers 
     1.0000   1.0000   1.0000   1.0000   1.0000   1.0000   1.0000   1.0000
     1.0000   1.0000   1.0000   1.0000   1.0000   1.0000

          k = 0.4351-0.3264-0.1088 (  3169 PWs)   bands (ev):

   -27.5116 -27.5106 -27.5105 -27.5034 -27.5019  -7.0999  -7.0132  -7.0089
    -6.9691  -6.9639  -2.9484   1.7742   4.7939   6.2988

     occupation numbers 
     1.0000   1.0000   1.0000   1.0000   1.0000   1.0000   1.0000   1.0000
     1.0000   1.0000   1.0000   1.0000   1.0000   1.0000

          k = 0.3807-0.2720-0.0544 (  3157 PWs)   bands (ev):

   -27.5104 -27.5101 -27.5095 -27.5030 -27.5012  -7.0922  -7.0146  -7.0117
    -6.9698  -6.9634  -3.2798   2.3862   4.9868   6.5654

     occupation numbers 
     1.0000   1.0000   1.0000   1.0000   1.0000   1.0000   1.0000   1.0000
     1.0000   1.0000   1.0000   1.0000   1.0000   1.0000

          k = 0.3264-0.2176 0.0000 (  3168 PWs)   bands (ev):

   -27.5111 -27.5104 -27.5098 -27.5029 -27.5024  -7.0825  -7.0177  -7.0153
    -6.9705  -6.9633  -3.6382   3.1029   5.4292   6.8489

     occupation numbers 
     1.0000   1.0000   1.0000   1.0000   1.0000   1.0000   1.0000   1.0000
     1.0000   1.0000   1.0000   1.0000   1.0000   1.0000

          k = 0.0000 0.1088 0.4351 (  3165 PWs)   bands (ev):

   -27.5108 -27.5103 -27.5097 -27.5030 -27.5023  -7.0987  -7.0076  -7.0060
    -6.9777  -6.9598  -3.3451   2.6729   5.5451   5.9099

     occupation numbers 
     1.0000   1.0000   1.0000   1.0000   1.0000   1.0000   1.0000   1.0000
     1.0000   1.0000   1.0000   1.0000   1.0000   1.0000

          k =-0.0544 0.1632 0.4895 (  3172 PWs)   bands (ev):

   -27.5110 -27.5108 -27.5102 -27.5034 -27.5028  -7.1056  -7.0065  -7.0029
    -6.9777  -6.9599  -3.0123   2.0896   5.0699   5.7216

     occupation numbers 
     1.0000   1.0000   1.0000   1.0000   1.0000   1.0000   1.0000   1.0000
     1.0000   1.0000   1.0000   1.0000   1.0000   1.0000

          k = 0.5983-0.4895-0.1632 (  3172 PWs)   bands (ev):

   -27.5115 -27.5110 -27.5106 -27.5031 -27.5026  -7.1091  -7.0072  -7.0015
    -6.9760  -6.9608  -2.7188   1.6320   4.6331   5.6595

     occupation numbers 
     1.0000   1.0000   1.0000   1.0000   1.0000   1.0000   1.0000   1.0000
     1.0000   1.0000   1.0000   1.0000   1.0000   1.0000

          k = 0.5439-0.4351-0.1088 (  3168 PWs)   bands (ev):

   -27.5112 -27.5107 -27.5105 -27.5031 -27.5024  -7.1091  -7.0086  -7.0017
    -6.9734  -6.9626  -2.5826   1.4419   4.3325   5.7435

     occupation numbers 
     1.0000   1.0000   1.0000   1.0000   1.0000   1.0000   1.0000   1.0000
     1.0000   1.0000   1.0000   1.0000   1.0000   1.0000

          k = 0.4895-0.3807-0.0544 (  3172 PWs)   bands (ev):

   -27.5116 -27.5111 -27.5106 -27.5035 -27.5024  -7.1059  -7.0105  -7.0038
    -6.9711  -6.9644  -2.6791   1.5865   4.2445   5.9529

     occupation numbers 
     1.0000   1.0000   1.0000   1.0000   1.0000   1.0000   1.0000   1.0000
     1.0000   1.0000   1.0000   1.0000   1.0000   1.0000

          k = 0.4351-0.3264 0.0000 (  3168 PWs)   bands (ev):

   -27.5113 -27.5110 -27.5100 -27.5034 -27.5021  -7.1000  -7.0123  -7.0075
    -6.9702  -6.9645  -2.9504   1.9599   4.4442   6.2496

     occupation numbers 
     1.0000   1.0000   1.0000   1.0000   1.0000   1.0000   1.0000   1.0000
     1.0000   1.0000   1.0000   1.0000   1.0000   1.0000

          k = 0.0000 0.1088 0.5439 (  3174 PWs)   bands (ev):

   -27.5110 -27.5105 -27.5104 -27.5037 -27.5029  -7.1136  -7.0002  -6.9984
    -6.9819  -6.9582  -2.8169   1.8091   5.2168   5.4351

     occupation numbers 
     1.0000   1.0000   1.0000   1.0000   1.0000   1.0000   1.0000   1.0000
     1.0000   1.0000   1.0000   1.0000   1.0000   1.0000

          k = 0.6527-0.5439-0.1088 (  3174 PWs)   bands (ev):

   -27.5111 -27.5108 -27.5105 -27.5034 -27.5031  -7.1161  -7.0011  -6.9969
    -6.9806  -6.9589  -2.5612   1.4683   4.7541   5.3384

     occupation numbers 
     1.0000   1.0000   1.0000   1.0000   1.0000   1.0000   1.0000   1.0000
     1.0000   1.0000   1.0000   1.0000   1.0000   1.0000

          k = 0.5983-0.4895-0.0544 (  3179 PWs)   bands (ev):

   -27.5117 -27.5112 -27.5108 -27.5040 -27.5031  -7.1151  -7.0040  -6.9974
    -6.9780  -6.9609  -2.4274   1.3277   4.3052   5.4239

     occupation numbers 
     1.0000   1.0000   1.0000   1.0000   1.0000   1.0000   1.0000   1.0000
     1.0000   1.0000   1.0000   1.0000   1.0000   1.0000

          k = 0.5439-0.4351 0.0000 (  3182 PWs)   bands (ev):

   -27.5120 -27.5117 -27.5111 -27.5043 -27.5029  -7.1114  -7.0074  -6.9997
    -6.9746  -6.9631  -2.4772   1.4026   4.0911   5.6406

     occupation numbers 
     1.0000   1.0000   1.0000   1.0000   1.0000   1.0000   1.0000   1.0000
     1.0000   1.0000   1.0000   1.0000   1.0000   1.0000

          k = 0.7071-0.5983-0.0544 (  3195 PWs)   bands (ev):

   -27.5117 -27.5115 -27.5112 -27.5054 -27.5039  -7.1218  -6.9961  -6.9944
    -6.9845  -6.9575  -2.4284   1.2503   5.0776   5.1600

     occupation numbers 
     1.0000   1.0000   1.0000   1.0000   1.0000   1.0000   1.0000   1.0000
     1.0000   1.0000   1.0000   1.0000   1.0000   1.0000

          k = 0.6527-0.5439 0.0000 (  3178 PWs)   bands (ev):

   -27.5111 -27.5108 -27.5100 -27.5049 -27.5033  -7.1196  -6.9990  -6.9949
    -6.9819  -6.9588  -2.3632   1.2142   4.6427   5.2100

     occupation numbers 
     1.0000   1.0000   1.0000   1.0000   1.0000   1.0000   1.0000   1.0000
     1.0000   1.0000   1.0000   1.0000   1.0000   1.0000

          k = 0.0000 0.2176 0.4351 (  3166 PWs)   bands (ev):

   -27.5110 -27.5106 -27.5099 -27.5026 -27.5023  -7.0980  -7.0115  -7.0072
    -6.9741  -6.9613  -3.1843   2.3438   4.9673   6.0861

     occupation numbers 
     1.0000   1.0000   1.0000   1.0000   1.0000   1.0000   1.0000   1.0000
     1.0000   1.0000   1.0000   1.0000   1.0000   1.0000

          k = 0.6527-0.4351-0.2176 (  3171 PWs)   bands (ev):

   -27.5113 -27.5110 -27.5101 -27.5033 -27.5027  -7.1040  -7.0107  -7.0041
    -6.9735  -6.9624  -2.8577   1.8330   4.5998   5.8221

     occupation numbers 
     1.0000   1.0000   1.0000   1.0000   1.0000   1.0000   1.0000   1.0000
     1.0000   1.0000   1.0000   1.0000   1.0000   1.0000

          k = 0.5983-0.3807-0.1632 (  3169 PWs)   bands (ev):

   -27.5116 -27.5109 -27.5106 -27.5031 -27.5021  -7.1073  -7.0104  -7.0023
    -6.9722  -6.9632  -2.6385   1.5035   4.4324   5.6611

     occupation numbers 
     1.0000   1.0000   1.0000   1.0000   1.0000   1.0000   1.0000   1.0000
     1.0000   1.0000   1.0000   1.0000   1.0000   1.0000

          k = 0.7071-0.4895-0.1632 (  3163 PWs)   bands (ev):

   -27.5106 -27.5103 -27.5101 -27.5029 -27.5021  -7.1101  -7.0060  -6.9996
    -6.9772  -6.9604  -2.7199   1.7042   4.7024   5.3972

     occupation numbers 
     1.0000   1.0000   1.0000   1.0000   1.0000   1.0000   1.0000   1.0000
     1.0000   1.0000   1.0000   1.0000   1.0000   1.0000

          k = 0.6527-0.4351-0.1088 (  3172 PWs)   bands (ev):

   -27.5115 -27.5108 -27.5103 -27.5032 -27.5030  -7.1120  -7.0070  -6.9982
    -6.9759  -6.9620  -2.5010   1.4414   4.4061   5.2097

     occupation numbers 
     1.0000   1.0000   1.0000   1.0000   1.0000   1.0000   1.0000   1.0000
     1.0000   1.0000   1.0000   1.0000   1.0000   1.0000

          k = 0.5983-0.3807-0.0544 (  3177 PWs)   bands (ev):

   -27.5116 -27.5112 -27.5108 -27.5037 -27.5030  -7.1115  -7.0084  -6.9984
    -6.9743  -6.9633  -2.4506   1.3908   4.2297   5.2533

     occupation numbers 
     1.0000   1.0000   1.0000   1.0000   1.0000   1.0000   1.0000   1.0000
     1.0000   1.0000   1.0000   1.0000   1.0000   1.0000

          k = 0.5439-0.3264 0.0000 (  3169 PWs)   bands (ev):

   -27.5113 -27.5111 -27.5105 -27.5032 -27.5018  -7.1086  -7.0095  -7.0004
    -6.9733  -6.9633  -2.5935   1.5548   4.2731   5.4846

     occupation numbers 
     1.0000   1.0000   1.0000   1.0000   1.0000   1.0000   1.0000   1.0000
     1.0000   1.0000   1.0000   1.0000   1.0000   1.0000

          k = 0.7071-0.4895-0.0544 (  3171 PWs)   bands (ev):

   -27.5112 -27.5110 -27.5101 -27.5037 -27.5025  -7.1167  -7.0026  -6.9958
    -6.9792  -6.9600  -2.3955   1.3018   4.6626   4.9242

     occupation numbers 
     1.0000   1.0000   1.0000   1.0000   1.0000   1.0000   1.0000   1.0000
     1.0000   1.0000   1.0000   1.0000   1.0000   1.0000

          k = 0.6527-0.4351 0.0000 (  3180 PWs)   bands (ev):

   -27.5115 -27.5113 -27.5108 -27.5043 -27.5031  -7.1149  -7.0056  -6.9963
    -6.9770  -6.9620  -2.3548   1.2930   4.3689   4.9571

     occupation numbers 
     1.0000   1.0000   1.0000   1.0000   1.0000   1.0000   1.0000   1.0000
     1.0000   1.0000   1.0000   1.0000   1.0000   1.0000

          k = 0.7071-0.3807-0.0544 (  3169 PWs)   bands (ev):

   -27.5113 -27.5109 -27.5099 -27.5034 -27.5025  -7.1132  -7.0071  -6.9965
    -6.9753  -6.9629  -2.3653   1.3296   4.3754   4.8301

     occupation numbers 
     1.0000   1.0000   1.0000   1.0000   1.0000   1.0000   1.0000   1.0000
     1.0000   1.0000   1.0000   1.0000   1.0000   1.0000

     highest occupied level (ev):     7.7847

!    total energy              =    -364.71085205 Ry
     estimated scf accuracy    <          2.1E-10 Ry

     The total energy is the sum of the following terms:
     one-electron contribution =    -198.54539879 Ry
     hartree contribution      =     116.71774561 Ry
     xc contribution           =     -87.85234385 Ry
     ewald contribution        =    -195.03085501 Ry

     convergence has been achieved in  11 iterations

     Forces acting on atoms (cartesian axes, Ry/au):

     atom    1 type  1   force =     0.00000000    0.00000000    0.00000000
     atom    2 type  2   force =     0.00000000    0.00000000    0.00000000
     The non-local contrib.  to forces
     atom    1 type  1   force =     0.00000000    0.00000000    0.00000000
     atom    2 type  2   force =     0.00000000    0.00000000    0.00000000
     The ionic contribution  to forces
     atom    1 type  1   force =     0.00000000    0.00000000    0.00000000
     atom    2 type  2   force =    -0.00000000   -0.00000000   -0.00000000
     The local contribution  to forces
     atom    1 type  1   force =     0.00000000    0.00000000    0.00000000
     atom    2 type  2   force =     0.00000000    0.00000000    0.00000000
     The core correction contribution to forces
     atom    1 type  1   force =     0.00000000    0.00000000   -0.00000000
     atom    2 type  2   force =     0.00000000    0.00000000   -0.00000000
     The Hubbard contrib.    to forces
     atom    1 type  1   force =     0.00000000    0.00000000    0.00000000
     atom    2 type  2   force =     0.00000000    0.00000000    0.00000000
     The SCF correction term to forces
     atom    1 type  1   force =    -0.00000000   -0.00000000    0.00000000
     atom    2 type  2   force =     0.00000000    0.00000000   -0.00000000

     Total force =     0.000000     Total SCF correction =     0.000000


     Computing stress (Cartesian axis) and pressure

          total   stress  (Ry/bohr**3)                   (kbar)     P=     -121.55
  -0.00082630  -0.00000000  -0.00000000         -121.55       -0.00       -0.00
  -0.00000000  -0.00082630  -0.00000000           -0.00     -121.55       -0.00
  -0.00000000  -0.00000000  -0.00082630           -0.00       -0.00     -121.55

     kinetic stress (kbar)  84721.93     -0.00     -0.00
                               -0.00  84721.93      0.00
                                0.00      0.00  84721.93

     local   stress (kbar)  -2255.82     -0.00     -0.00
                               -0.00  -2255.82     -0.00
                               -0.00     -0.00  -2255.82

     nonloc. stress (kbar) -61428.54      0.00      0.00
                                0.00 -61428.54      0.00
                                0.00      0.00 -61428.54

     hartree stress (kbar)  17844.45      0.00      0.00
                                0.00  17844.45      0.00
                                0.00      0.00  17844.45

     exc-cor stress (kbar)  13363.66      0.00      0.00
                                0.00  13363.66      0.00
                                0.00      0.00  13363.66

     corecor stress (kbar) -22549.84     -0.00     -0.00
                               -0.00 -22549.84      0.00
                               -0.00      0.00 -22549.84

     ewald   stress (kbar) -29817.39      0.00      0.00
                                0.00 -29817.39      0.00
                                0.00      0.00 -29817.39

     hubbard stress (kbar)      0.00      0.00      0.00
                                0.00      0.00      0.00
                                0.00      0.00      0.00

     DFT-D   stress (kbar)      0.00      0.00      0.00
                                0.00      0.00      0.00
                                0.00      0.00      0.00

     XDM     stress (kbar)      0.00      0.00      0.00
                                0.00      0.00      0.00
                                0.00      0.00      0.00

     dft-nl  stress (kbar)      0.00      0.00      0.00
                                0.00      0.00      0.00
                                0.00      0.00      0.00

     TS-vdW  stress (kbar)      0.00      0.00      0.00
                                0.00      0.00      0.00
                                0.00      0.00      0.00

     MDB     stress (kbar)      0.00      0.00      0.00
                                0.00      0.00      0.00
                                0.00      0.00      0.00

     3D-RISM stress (kbar)      0.00      0.00      0.00
                                0.00      0.00      0.00
                                0.00      0.00      0.00


     Writing all to output data dir ./out/GaAs.save/ :
     XML data file, charge density, pseudopotentials, collected wavefunctions

     init_run     :      2.82s CPU      2.86s WALL (       1 calls)
     electrons    :     63.49s CPU     63.67s WALL (       1 calls)
     forces       :      0.60s CPU      0.61s WALL (       1 calls)
     stress       :      2.94s CPU      3.50s WALL (       1 calls)

     Called by init_run:
     wfcinit      :      2.19s CPU      2.21s WALL (       1 calls)
     wfcinit:atom :      0.04s CPU      0.04s WALL (      84 calls)
     wfcinit:wfcr :      1.93s CPU      1.95s WALL (      84 calls)
     potinit      :      0.14s CPU      0.15s WALL (       1 calls)
     hinit0       :      0.45s CPU      0.46s WALL (       1 calls)

     Called by electrons:
     c_bands      :     55.39s CPU     55.55s WALL (      12 calls)
     sum_band     :      7.87s CPU      7.88s WALL (      12 calls)
     v_of_rho     :      0.13s CPU      0.13s WALL (      12 calls)
     v_h          :      0.03s CPU      0.03s WALL (      12 calls)
     v_xc         :      0.11s CPU      0.12s WALL (      14 calls)
     mix_rho      :      0.06s CPU      0.06s WALL (      12 calls)

     Called by c_bands:
     init_us_2    :      1.68s CPU      1.69s WALL (    2268 calls)
     cegterg      :     52.50s CPU     52.64s WALL (    1008 calls)

     Called by sum_band:
     sum_band:wei :      0.00s CPU      0.00s WALL (      12 calls)
     sum_band:loo :      7.81s CPU      7.82s WALL (      12 calls)
     sum_band:buf :      0.07s CPU      0.07s WALL (    1008 calls)
     sum_band:ini :      0.78s CPU      0.78s WALL (    1008 calls)

     Called by *egterg:
     cdiaghg      :      0.55s CPU      0.55s WALL (    4168 calls)
     cegterg:over :      3.06s CPU      3.07s WALL (    3244 calls)
     cegterg:upda :      1.57s CPU      1.58s WALL (    3244 calls)
     cegterg:last :      2.63s CPU      2.64s WALL (    2105 calls)
     h_psi        :     44.94s CPU     45.08s WALL (    4336 calls)
     g_psi        :      0.22s CPU      0.22s WALL (    3244 calls)

     Called by h_psi:
     h_psi:calbec :      3.94s CPU      3.95s WALL (    4336 calls)
     vloc_psi     :     37.76s CPU     37.88s WALL (    4336 calls)
     add_vuspsi   :      3.07s CPU      3.08s WALL (    4336 calls)

     General routines
     calbec       :      4.51s CPU      4.52s WALL (    4756 calls)
     fft          :      0.31s CPU      0.33s WALL (      66 calls)
     ffts         :      0.09s CPU      0.10s WALL (      24 calls)
     fftw         :     37.17s CPU     37.28s WALL (   92052 calls)
     interpolate  :      0.10s CPU      0.11s WALL (      12 calls)

     Parallel routines

     PWSCF        :   1m 9.92s CPU   1m11.56s WALL


   This run was terminated on:  11:57:19   6Aug2024            

=------------------------------------------------------------------------------=
   JOB DONE.
=------------------------------------------------------------------------------=
