
     Program PROJWFC v.7.3.1 starts on  6Aug2024 at 12: 6:42 

     This program is part of the open-source Quantum ESPRESSO suite
     for quantum simulation of materials; please cite
         "P. Giannozzi et al., J. Phys.:Condens. Matter 21 395502 (2009);
         "P. Giannozzi et al., J. Phys.:Condens. Matter 29 465901 (2017);
         "P. Giannozzi et al., J. Chem. Phys. 152 154105 (2020);
          URL http://www.quantum-espresso.org", 
     in publications or presentations arising from this work. More details at
     http://www.quantum-espresso.org/quote

     Parallel version (MPI), running on     1 processors

     MPI processes distributed on     1 nodes
     1588 MiB available memory on the printing compute node when the environment starts


     Reading xml data from directory:

     ./out/GaAs.save/
     Message from routine volume:
     axis vectors are left-handed

     IMPORTANT: XC functional enforced from input :
     Exchange-correlation= PW
                           (   1   4   0   0   0   0   0)
     Any further DFT definition will be discarded
     Please, verify this is what you really want


     G-vector sticks info
     --------------------
     sticks:   dense  smooth     PW     G-vecs:    dense   smooth      PW
     Sum        2263    1147    349                71537    25509    4111

     Using Slab Decomposition


     Gaussian broadening (read from input): ngauss,degauss=   0    0.010000


     Calling projwave .... 
     Subspace diagonalization in iterative solution of the eigenvalue problem:
     a serial algorithm will be used


  Problem Sizes 
  natomwfc =           18
  nbnd     =           14
  nkstot   =           84
  npwx     =         3198
  nkb      =           36


     Atomic states used for projection
     (read from pseudopotential files):

     state #   1: atom   1 (As ), wfc  1 (l=2 m= 1)
     state #   2: atom   1 (As ), wfc  1 (l=2 m= 2)
     state #   3: atom   1 (As ), wfc  1 (l=2 m= 3)
     state #   4: atom   1 (As ), wfc  1 (l=2 m= 4)
     state #   5: atom   1 (As ), wfc  1 (l=2 m= 5)
     state #   6: atom   1 (As ), wfc  2 (l=0 m= 1)
     state #   7: atom   1 (As ), wfc  3 (l=1 m= 1)
     state #   8: atom   1 (As ), wfc  3 (l=1 m= 2)
     state #   9: atom   1 (As ), wfc  3 (l=1 m= 3)
     state #  10: atom   2 (Ga ), wfc  1 (l=2 m= 1)
     state #  11: atom   2 (Ga ), wfc  1 (l=2 m= 2)
     state #  12: atom   2 (Ga ), wfc  1 (l=2 m= 3)
     state #  13: atom   2 (Ga ), wfc  1 (l=2 m= 4)
     state #  14: atom   2 (Ga ), wfc  1 (l=2 m= 5)
     state #  15: atom   2 (Ga ), wfc  2 (l=0 m= 1)
     state #  16: atom   2 (Ga ), wfc  3 (l=1 m= 1)
     state #  17: atom   2 (Ga ), wfc  3 (l=1 m= 2)
     state #  18: atom   2 (Ga ), wfc  3 (l=1 m= 3)

 k =   0.0000000000  0.0000000000  0.0000000000
==== e(   1) =   -27.50878 eV ==== 
     psi = 0.333*[#   2]+0.333*[#   3]+0.333*[#   5]
    |psi|^2 = 1.000
==== e(   2) =   -27.50878 eV ==== 
     psi = 0.333*[#   2]+0.333*[#   3]+0.333*[#   5]
    |psi|^2 = 1.000
==== e(   3) =   -27.50878 eV ==== 
     psi = 0.333*[#   2]+0.333*[#   3]+0.333*[#   5]
    |psi|^2 = 1.000
==== e(   4) =   -27.50241 eV ==== 
     psi = 0.500*[#   1]+0.500*[#   4]
    |psi|^2 = 1.001
==== e(   5) =   -27.50241 eV ==== 
     psi = 0.500*[#   1]+0.500*[#   4]
    |psi|^2 = 1.000
==== e(   6) =    -7.03222 eV ==== 
     psi = 0.330*[#  11]+0.330*[#  12]+0.330*[#  14]+0.003*[#   7]+0.003*[#   8]
          +0.003*[#   9]
    |psi|^2 = 0.999
==== e(   7) =    -7.03222 eV ==== 
     psi = 0.330*[#  11]+0.330*[#  12]+0.330*[#  14]+0.002*[#   7]+0.002*[#   8]
          +0.002*[#   9]
    |psi|^2 = 0.997
==== e(   8) =    -7.03222 eV ==== 
     psi = 0.330*[#  11]+0.330*[#  12]+0.330*[#  14]+0.003*[#   7]+0.003*[#   8]
          +0.003*[#   9]
    |psi|^2 = 1.001
==== e(   9) =    -6.96615 eV ==== 
     psi = 0.500*[#  10]+0.500*[#  13]
    |psi|^2 = 1.000
==== e(  10) =    -6.96615 eV ==== 
     psi = 0.500*[#  10]+0.500*[#  13]
    |psi|^2 = 1.000
==== e(  11) =    -4.65117 eV ==== 
     psi = 0.606*[#   6]+0.392*[#  15]
    |psi|^2 = 0.997
==== e(  12) =     7.69548 eV ==== 
     psi = 0.605*[#  15]+0.389*[#   6]
    |psi|^2 = 0.994
==== e(  13) =     7.78468 eV ==== 
     psi = 0.287*[#   7]+0.287*[#   8]+0.287*[#   9]+0.040*[#  16]+0.040*[#  17]
          +0.040*[#  18]+0.003*[#  11]+0.003*[#  12]+0.003*[#  14]
    |psi|^2 = 0.991
==== e(  14) =     7.78468 eV ==== 
     psi = 0.287*[#   7]+0.287*[#   8]+0.287*[#   9]+0.040*[#  16]+0.040*[#  17]
          +0.040*[#  18]+0.003*[#  11]+0.003*[#  12]+0.003*[#  14]
    |psi|^2 = 0.991

 k =  -0.0543928293  0.0543928293  0.0543928293
==== e(   1) =   -27.51094 eV ==== 
     psi = 0.333*[#   2]+0.333*[#   3]+0.333*[#   5]
    |psi|^2 = 1.000
==== e(   2) =   -27.51038 eV ==== 
     psi = 0.328*[#   2]+0.328*[#   3]+0.328*[#   5]+0.008*[#   1]+0.008*[#   4]
          
    |psi|^2 = 1.000
==== e(   3) =   -27.51038 eV ==== 
     psi = 0.328*[#   2]+0.328*[#   3]+0.328*[#   5]+0.008*[#   1]+0.008*[#   4]
          
    |psi|^2 = 1.000
==== e(   4) =   -27.50335 eV ==== 
     psi = 0.492*[#   1]+0.492*[#   4]+0.005*[#   2]+0.005*[#   3]+0.005*[#   5]
          
    |psi|^2 = 1.001
==== e(   5) =   -27.50335 eV ==== 
     psi = 0.492*[#   1]+0.492*[#   4]+0.005*[#   2]+0.005*[#   3]+0.005*[#   5]
          
    |psi|^2 = 1.000
==== e(   6) =    -7.03694 eV ==== 
     psi = 0.330*[#  11]+0.330*[#  12]+0.330*[#  14]+0.002*[#   6]+0.002*[#   7]
          +0.002*[#   8]+0.002*[#   9]
    |psi|^2 = 0.997
==== e(   7) =    -7.03148 eV ==== 
     psi = 0.330*[#  11]+0.330*[#  12]+0.330*[#  14]+0.003*[#   7]+0.003*[#   8]
          +0.003*[#   9]
    |psi|^2 = 1.002
==== e(   8) =    -7.03148 eV ==== 
     psi = 0.330*[#  11]+0.330*[#  12]+0.330*[#  14]+0.002*[#   7]+0.002*[#   8]
          +0.002*[#   9]
    |psi|^2 = 0.998
==== e(   9) =    -6.96647 eV ==== 
     psi = 0.499*[#  10]+0.499*[#  13]
    |psi|^2 = 1.000
==== e(  10) =    -6.96647 eV ==== 
     psi = 0.499*[#  10]+0.499*[#  13]
    |psi|^2 = 1.000
==== e(  11) =    -4.58677 eV ==== 
     psi = 0.590*[#   6]+0.365*[#  15]+0.007*[#  16]+0.007*[#  17]+0.007*[#  18]
          +0.002*[#   7]+0.002*[#   8]+0.002*[#   9]
    |psi|^2 = 0.984
==== e(  12) =     6.51169 eV ==== 
     psi = 0.286*[#  15]+0.192*[#   6]+0.099*[#   7]+0.099*[#   8]+0.099*[#   9]
          +0.014*[#  16]+0.014*[#  17]+0.014*[#  18]+0.002*[#  11]+0.002*[#  12]
          +0.002*[#  14]
    |psi|^2 = 0.823
==== e(  13) =     7.69446 eV ==== 
     psi = 0.281*[#   7]+0.281*[#   8]+0.281*[#   9]+0.047*[#  16]+0.047*[#  17]
          +0.047*[#  18]+0.003*[#  11]+0.003*[#  12]+0.003*[#  14]
    |psi|^2 = 0.991
==== e(  14) =     7.69446 eV ==== 
     psi = 0.281*[#   7]+0.281*[#   8]+0.281*[#   9]+0.047*[#  16]+0.047*[#  17]
          +0.047*[#  18]+0.003*[#  11]+0.003*[#  12]+0.003*[#  14]
    |psi|^2 = 0.991

 k =  -0.1087856586  0.1087856586  0.1087856586
==== e(   1) =   -27.51039 eV ==== 
     psi = 0.333*[#   2]+0.333*[#   3]+0.333*[#   5]
    |psi|^2 = 1.000
==== e(   2) =   -27.51025 eV ==== 
     psi = 0.333*[#   2]+0.333*[#   3]+0.333*[#   5]
    |psi|^2 = 1.000
==== e(   3) =   -27.51025 eV ==== 
     psi = 0.333*[#   2]+0.333*[#   3]+0.333*[#   5]
    |psi|^2 = 1.000
==== e(   4) =   -27.50277 eV ==== 
     psi = 0.500*[#   1]+0.500*[#   4]
    |psi|^2 = 1.000
==== e(   5) =   -27.50277 eV ==== 
     psi = 0.500*[#   1]+0.500*[#   4]
    |psi|^2 = 1.000
==== e(   6) =    -7.04777 eV ==== 
     psi = 0.328*[#  11]+0.328*[#  12]+0.328*[#  14]+0.007*[#   6]+0.001*[#   7]
          +0.001*[#   8]+0.001*[#   9]+0.001*[#  15]
    |psi|^2 = 0.998
==== e(   7) =    -7.02837 eV ==== 
     psi = 0.329*[#  11]+0.329*[#  12]+0.329*[#  14]+0.003*[#  10]+0.003*[#  13]
          +0.002*[#   7]+0.002*[#   8]+0.002*[#   9]
    |psi|^2 = 0.997
==== e(   8) =    -7.02837 eV ==== 
     psi = 0.329*[#  11]+0.329*[#  12]+0.329*[#  14]+0.003*[#   7]+0.003*[#   8]
          +0.003*[#   9]+0.003*[#  10]+0.003*[#  13]
    |psi|^2 = 1.001
==== e(   9) =    -6.96635 eV ==== 
     psi = 0.497*[#  10]+0.497*[#  13]+0.002*[#  11]+0.002*[#  12]+0.002*[#  14]
          
    |psi|^2 = 1.000
==== e(  10) =    -6.96635 eV ==== 
     psi = 0.497*[#  10]+0.497*[#  13]+0.002*[#  11]+0.002*[#  12]+0.002*[#  14]
          
    |psi|^2 = 1.000
==== e(  11) =    -4.39824 eV ==== 
     psi = 0.560*[#   6]+0.307*[#  15]+0.023*[#  16]+0.023*[#  17]+0.023*[#  18]
          +0.005*[#   7]+0.005*[#   8]+0.005*[#   9]+0.002*[#  11]+0.002*[#  12]
          +0.002*[#  14]
    |psi|^2 = 0.956
==== e(  12) =     5.21649 eV ==== 
     psi = 0.267*[#  15]+0.176*[#   6]+0.103*[#   7]+0.103*[#   8]+0.103*[#   9]
          +0.019*[#  16]+0.019*[#  17]+0.019*[#  18]+0.002*[#  11]+0.002*[#  12]
          +0.002*[#  14]
    |psi|^2 = 0.812
==== e(  13) =     7.47418 eV ==== 
     psi = 0.269*[#   7]+0.269*[#   8]+0.269*[#   9]+0.060*[#  16]+0.060*[#  17]
          +0.060*[#  18]+0.002*[#  11]+0.002*[#  12]+0.002*[#  14]
    |psi|^2 = 0.993
==== e(  14) =     7.47418 eV ==== 
     psi = 0.269*[#   7]+0.269*[#   8]+0.269*[#   9]+0.060*[#  16]+0.060*[#  17]
          +0.060*[#  18]+0.002*[#  11]+0.002*[#  12]+0.002*[#  14]
    |psi|^2 = 0.993

 k =  -0.1631784880  0.1631784880  0.1631784880
==== e(   1) =   -27.50996 eV ==== 
     psi = 0.333*[#   2]+0.333*[#   3]+0.333*[#   5]
    |psi|^2 = 1.000
==== e(   2) =   -27.50990 eV ==== 
     psi = 0.333*[#   2]+0.333*[#   3]+0.333*[#   5]
    |psi|^2 = 1.000
==== e(   3) =   -27.50990 eV ==== 
     psi = 0.333*[#   2]+0.333*[#   3]+0.333*[#   5]
    |psi|^2 = 1.000
==== e(   4) =   -27.50255 eV ==== 
     psi = 0.500*[#   1]+0.500*[#   4]
    |psi|^2 = 1.000
==== e(   5) =   -27.50255 eV ==== 
     psi = 0.500*[#   1]+0.500*[#   4]
    |psi|^2 = 1.000
==== e(   6) =    -7.06245 eV ==== 
     psi = 0.326*[#  11]+0.326*[#  12]+0.326*[#  14]+0.013*[#   6]+0.002*[#  15]
          
    |psi|^2 = 0.998
==== e(   7) =    -7.02423 eV ==== 
     psi = 0.324*[#  11]+0.324*[#  12]+0.324*[#  14]+0.010*[#  10]+0.010*[#  13]
          +0.002*[#   7]+0.002*[#   8]+0.002*[#   9]
    |psi|^2 = 0.999
==== e(   8) =    -7.02423 eV ==== 
     psi = 0.324*[#  11]+0.324*[#  12]+0.324*[#  14]+0.010*[#  10]+0.010*[#  13]
          +0.002*[#   7]+0.002*[#   8]+0.002*[#   9]
    |psi|^2 = 0.999
==== e(   9) =    -6.96608 eV ==== 
     psi = 0.490*[#  10]+0.490*[#  13]+0.007*[#  11]+0.007*[#  12]+0.007*[#  14]
          
    |psi|^2 = 1.000
==== e(  10) =    -6.96608 eV ==== 
     psi = 0.490*[#  10]+0.490*[#  13]+0.007*[#  11]+0.007*[#  12]+0.007*[#  14]
          
    |psi|^2 = 1.000
==== e(  11) =    -4.10129 eV ==== 
     psi = 0.542*[#   6]+0.251*[#  15]+0.035*[#  16]+0.035*[#  17]+0.035*[#  18]
          +0.007*[#   7]+0.007*[#   8]+0.007*[#   9]+0.004*[#  11]+0.004*[#  12]
          +0.004*[#  14]
    |psi|^2 = 0.933
==== e(  12) =     3.96542 eV ==== 
     psi = 0.268*[#  15]+0.154*[#   6]+0.102*[#   7]+0.102*[#   8]+0.102*[#   9]
          +0.023*[#  16]+0.023*[#  17]+0.023*[#  18]+0.002*[#  11]+0.002*[#  12]
          +0.002*[#  14]
    |psi|^2 = 0.806
==== e(  13) =     7.21505 eV ==== 
     psi = 0.258*[#   7]+0.258*[#   8]+0.258*[#   9]+0.071*[#  16]+0.071*[#  17]
          +0.071*[#  18]+0.002*[#  11]+0.002*[#  12]+0.002*[#  14]
    |psi|^2 = 0.994
==== e(  14) =     7.21505 eV ==== 
     psi = 0.258*[#   7]+0.258*[#   8]+0.258*[#   9]+0.071*[#  16]+0.071*[#  17]
          +0.071*[#  18]+0.002*[#  11]+0.002*[#  12]+0.002*[#  14]
    |psi|^2 = 0.994

 k =  -0.2175713173  0.2175713173  0.2175713173
==== e(   1) =   -27.51116 eV ==== 
     psi = 0.333*[#   2]+0.333*[#   3]+0.333*[#   5]
    |psi|^2 = 1.000
==== e(   2) =   -27.51116 eV ==== 
     psi = 0.333*[#   2]+0.333*[#   3]+0.333*[#   5]
    |psi|^2 = 1.000
==== e(   3) =   -27.50869 eV ==== 
     psi = 0.333*[#   2]+0.333*[#   3]+0.333*[#   5]
    |psi|^2 = 1.000
==== e(   4) =   -27.50251 eV ==== 
     psi = 0.500*[#   1]+0.500*[#   4]
    |psi|^2 = 1.000
==== e(   5) =   -27.50251 eV ==== 
     psi = 0.500*[#   1]+0.500*[#   4]
    |psi|^2 = 1.000
==== e(   6) =    -7.07697 eV ==== 
     psi = 0.325*[#  11]+0.325*[#  12]+0.325*[#  14]+0.019*[#   6]+0.002*[#  15]
          
    |psi|^2 = 0.998
==== e(   7) =    -7.02078 eV ==== 
     psi = 0.316*[#  11]+0.316*[#  12]+0.316*[#  14]+0.022*[#  10]+0.022*[#  13]
          +0.002*[#   7]+0.002*[#   8]+0.002*[#   9]
    |psi|^2 = 1.000
==== e(   8) =    -7.02078 eV ==== 
     psi = 0.316*[#  11]+0.316*[#  12]+0.316*[#  14]+0.022*[#  10]+0.022*[#  13]
          +0.002*[#   7]+0.002*[#   8]+0.002*[#   9]
    |psi|^2 = 0.999
==== e(   9) =    -6.96530 eV ==== 
     psi = 0.477*[#  10]+0.477*[#  13]+0.015*[#  11]+0.015*[#  12]+0.015*[#  14]
          
    |psi|^2 = 1.000
==== e(  10) =    -6.96530 eV ==== 
     psi = 0.477*[#  10]+0.477*[#  13]+0.015*[#  11]+0.015*[#  12]+0.015*[#  14]
          
    |psi|^2 = 1.000
==== e(  11) =    -3.72890 eV ==== 
     psi = 0.550*[#   6]+0.205*[#  15]+0.042*[#  16]+0.042*[#  17]+0.042*[#  18]
          +0.008*[#   7]+0.008*[#   8]+0.008*[#   9]+0.006*[#  11]+0.006*[#  12]
          +0.006*[#  14]
    |psi|^2 = 0.923
==== e(  12) =     2.84423 eV ==== 
     psi = 0.282*[#  15]+0.121*[#   6]+0.102*[#   7]+0.102*[#   8]+0.102*[#   9]
          +0.028*[#  16]+0.028*[#  17]+0.028*[#  18]+0.002*[#  11]+0.002*[#  12]
          +0.002*[#  14]
    |psi|^2 = 0.798
==== e(  13) =     6.98321 eV ==== 
     psi = 0.251*[#   7]+0.251*[#   8]+0.251*[#   9]+0.079*[#  16]+0.079*[#  17]
          +0.079*[#  18]+0.002*[#  11]+0.002*[#  12]+0.002*[#  14]
    |psi|^2 = 0.995
==== e(  14) =     6.98321 eV ==== 
     psi = 0.251*[#   7]+0.251*[#   8]+0.251*[#   9]+0.079*[#  16]+0.079*[#  17]
          +0.079*[#  18]+0.002*[#  11]+0.002*[#  12]+0.002*[#  14]
    |psi|^2 = 0.995

 k =  -0.2719641466  0.2719641466  0.2719641466
==== e(   1) =   -27.51130 eV ==== 
     psi = 0.333*[#   2]+0.333*[#   3]+0.333*[#   5]
    |psi|^2 = 1.000
==== e(   2) =   -27.51041 eV ==== 
     psi = 0.333*[#   2]+0.333*[#   3]+0.333*[#   5]
    |psi|^2 = 1.000
==== e(   3) =   -27.51041 eV ==== 
     psi = 0.333*[#   2]+0.333*[#   3]+0.333*[#   5]
    |psi|^2 = 1.000
==== e(   4) =   -27.50174 eV ==== 
     psi = 0.500*[#   1]+0.500*[#   4]
    |psi|^2 = 1.000
==== e(   5) =   -27.50174 eV ==== 
     psi = 0.500*[#   1]+0.500*[#   4]
    |psi|^2 = 1.000
==== e(   6) =    -7.08941 eV ==== 
     psi = 0.324*[#  11]+0.324*[#  12]+0.324*[#  14]+0.023*[#   6]+0.002*[#  15]
          
    |psi|^2 = 0.999
==== e(   7) =    -7.01795 eV ==== 
     psi = 0.306*[#  11]+0.306*[#  12]+0.306*[#  14]+0.038*[#  10]+0.038*[#  13]
          +0.001*[#   7]+0.001*[#   8]+0.001*[#   9]
    |psi|^2 = 0.999
==== e(   8) =    -7.01795 eV ==== 
     psi = 0.306*[#  11]+0.306*[#  12]+0.306*[#  14]+0.038*[#  10]+0.038*[#  13]
          +0.002*[#   7]+0.002*[#   8]+0.002*[#   9]
    |psi|^2 = 0.999
==== e(   9) =    -6.96395 eV ==== 
     psi = 0.462*[#  10]+0.462*[#  13]+0.026*[#  11]+0.026*[#  12]+0.026*[#  14]
          
    |psi|^2 = 1.000
==== e(  10) =    -6.96395 eV ==== 
     psi = 0.462*[#  10]+0.462*[#  13]+0.026*[#  11]+0.026*[#  12]+0.026*[#  14]
          
    |psi|^2 = 1.000
==== e(  11) =    -3.34848 eV ==== 
     psi = 0.581*[#   6]+0.169*[#  15]+0.043*[#  16]+0.043*[#  17]+0.043*[#  18]
          +0.008*[#  11]+0.008*[#  12]+0.008*[#  14]+0.007*[#   7]+0.007*[#   8]
          +0.007*[#   9]
    |psi|^2 = 0.923
==== e(  12) =     1.95073 eV ==== 
     psi = 0.301*[#  15]+0.102*[#   7]+0.102*[#   8]+0.102*[#   9]+0.075*[#   6]
          +0.034*[#  16]+0.034*[#  17]+0.034*[#  18]
    |psi|^2 = 0.788
==== e(  13) =     6.81478 eV ==== 
     psi = 0.246*[#   7]+0.246*[#   8]+0.246*[#   9]+0.084*[#  16]+0.084*[#  17]
          +0.084*[#  18]+0.002*[#  11]+0.002*[#  12]+0.002*[#  14]
    |psi|^2 = 0.996
==== e(  14) =     6.81478 eV ==== 
     psi = 0.246*[#   7]+0.246*[#   8]+0.246*[#   9]+0.084*[#  16]+0.084*[#  17]
          +0.084*[#  18]+0.002*[#  11]+0.002*[#  12]+0.002*[#  14]
    |psi|^2 = 0.996

 k =  -0.3263569759  0.3263569759  0.3263569759
==== e(   1) =   -27.51272 eV ==== 
     psi = 0.333*[#   2]+0.333*[#   3]+0.333*[#   5]
    |psi|^2 = 1.000
==== e(   2) =   -27.51039 eV ==== 
     psi = 0.332*[#   2]+0.332*[#   3]+0.332*[#   5]+0.002*[#   1]+0.002*[#   4]
          
    |psi|^2 = 1.000
==== e(   3) =   -27.51039 eV ==== 
     psi = 0.332*[#   2]+0.332*[#   3]+0.332*[#   5]+0.002*[#   1]+0.002*[#   4]
          
    |psi|^2 = 1.000
==== e(   4) =   -27.50221 eV ==== 
     psi = 0.498*[#   1]+0.498*[#   4]+0.001*[#   2]+0.001*[#   3]+0.001*[#   5]
          
    |psi|^2 = 1.000
==== e(   5) =   -27.50221 eV ==== 
     psi = 0.498*[#   1]+0.498*[#   4]+0.001*[#   2]+0.001*[#   3]+0.001*[#   5]
          
    |psi|^2 = 1.000
==== e(   6) =    -7.09624 eV ==== 
     psi = 0.323*[#  11]+0.323*[#  12]+0.323*[#  14]+0.025*[#   6]+0.002*[#  15]
          
    |psi|^2 = 0.999
==== e(   7) =    -7.01672 eV ==== 
     psi = 0.298*[#  11]+0.298*[#  12]+0.298*[#  14]+0.049*[#  10]+0.049*[#  13]
          
    |psi|^2 = 0.997
==== e(   8) =    -7.01672 eV ==== 
     psi = 0.298*[#  11]+0.298*[#  12]+0.298*[#  14]+0.049*[#  10]+0.049*[#  13]
          +0.002*[#   7]+0.002*[#   8]+0.002*[#   9]
    |psi|^2 = 1.001
==== e(   9) =    -6.96319 eV ==== 
     psi = 0.450*[#  10]+0.450*[#  13]+0.033*[#  11]+0.033*[#  12]+0.033*[#  14]
          
    |psi|^2 = 1.000
==== e(  10) =    -6.96319 eV ==== 
     psi = 0.450*[#  10]+0.450*[#  13]+0.033*[#  11]+0.033*[#  12]+0.033*[#  14]
          
    |psi|^2 = 1.000
==== e(  11) =    -3.08578 eV ==== 
     psi = 0.617*[#   6]+0.145*[#  15]+0.041*[#  16]+0.041*[#  17]+0.041*[#  18]
          +0.010*[#  11]+0.010*[#  12]+0.010*[#  14]+0.005*[#   7]+0.005*[#   8]
          +0.005*[#   9]
    |psi|^2 = 0.929
==== e(  12) =     1.42770 eV ==== 
     psi = 0.319*[#  15]+0.102*[#   7]+0.102*[#   8]+0.102*[#   9]+0.039*[#  16]
          +0.039*[#  17]+0.039*[#  18]+0.033*[#   6]
    |psi|^2 = 0.778
==== e(  13) =     6.72703 eV ==== 
     psi = 0.245*[#   7]+0.245*[#   8]+0.245*[#   9]+0.086*[#  16]+0.086*[#  17]
          +0.086*[#  18]+0.001*[#  11]+0.001*[#  12]+0.001*[#  14]
    |psi|^2 = 0.996
==== e(  14) =     6.72703 eV ==== 
     psi = 0.245*[#   7]+0.245*[#   8]+0.245*[#   9]+0.086*[#  16]+0.086*[#  17]
          +0.086*[#  18]+0.001*[#  11]+0.001*[#  12]+0.001*[#  14]
    |psi|^2 = 0.996

 k =   0.0000000000  0.0000000000  0.1087856586
==== e(   1) =   -27.51131 eV ==== 
     psi = 0.333*[#   2]+0.333*[#   3]+0.333*[#   5]
    |psi|^2 = 1.000
==== e(   2) =   -27.51131 eV ==== 
     psi = 0.333*[#   2]+0.333*[#   3]+0.333*[#   5]
    |psi|^2 = 1.000
==== e(   3) =   -27.51007 eV ==== 
     psi = 0.333*[#   2]+0.333*[#   3]+0.333*[#   5]
    |psi|^2 = 0.999
==== e(   4) =   -27.50351 eV ==== 
     psi = 0.500*[#   1]+0.500*[#   4]
    |psi|^2 = 1.001
==== e(   5) =   -27.50269 eV ==== 
     psi = 0.500*[#   1]+0.500*[#   4]
    |psi|^2 = 1.000
==== e(   6) =    -7.03926 eV ==== 
     psi = 0.329*[#  11]+0.329*[#  12]+0.329*[#  14]+0.003*[#   6]
    |psi|^2 = 0.992
==== e(   7) =    -7.03071 eV ==== 
     psi = 0.330*[#  11]+0.330*[#  12]+0.330*[#  14]+0.005*[#   7]+0.005*[#   8]
          +0.005*[#   9]
    |psi|^2 = 1.008
==== e(   8) =    -7.03071 eV ==== 
     psi = 0.330*[#  11]+0.330*[#  12]+0.330*[#  14]+0.003*[#   7]+0.003*[#   8]
          +0.003*[#   9]
    |psi|^2 = 1.000
==== e(   9) =    -6.96725 eV ==== 
     psi = 0.499*[#  10]+0.499*[#  13]
    |psi|^2 = 1.000
==== e(  10) =    -6.96563 eV ==== 
     psi = 0.500*[#  10]+0.500*[#  13]
    |psi|^2 = 1.000
==== e(  11) =    -4.56528 eV ==== 
     psi = 0.585*[#   6]+0.357*[#  15]
    |psi|^2 = 0.944
==== e(  12) =     6.42604 eV ==== 
     psi = 0.315*[#  15]+0.213*[#   6]+0.002*[#  11]+0.002*[#  12]+0.002*[#  14]
          
    |psi|^2 = 0.533
==== e(  13) =     7.51931 eV ==== 
     psi = 0.271*[#   7]+0.271*[#   8]+0.271*[#   9]+0.058*[#  16]+0.058*[#  17]
          +0.058*[#  18]+0.002*[#  11]+0.002*[#  12]+0.002*[#  14]
    |psi|^2 = 0.992
==== e(  14) =     7.51931 eV ==== 
     psi = 0.271*[#   7]+0.271*[#   8]+0.271*[#   9]+0.058*[#  16]+0.058*[#  17]
          +0.058*[#  18]+0.002*[#  11]+0.002*[#  12]+0.002*[#  14]
    |psi|^2 = 0.992

 k =  -0.0543928293  0.0543928293  0.1631784880
==== e(   1) =   -27.51122 eV ==== 
     psi = 0.332*[#   2]+0.332*[#   3]+0.332*[#   5]+0.002*[#   1]+0.002*[#   4]
          
    |psi|^2 = 1.000
==== e(   2) =   -27.51075 eV ==== 
     psi = 0.333*[#   2]+0.333*[#   3]+0.333*[#   5]
    |psi|^2 = 1.000
==== e(   3) =   -27.50973 eV ==== 
     psi = 0.333*[#   2]+0.333*[#   3]+0.333*[#   5]
    |psi|^2 = 0.999
==== e(   4) =   -27.50330 eV ==== 
     psi = 0.500*[#   1]+0.500*[#   4]
    |psi|^2 = 1.000
==== e(   5) =   -27.50260 eV ==== 
     psi = 0.498*[#   1]+0.498*[#   4]+0.001*[#   2]+0.001*[#   3]+0.001*[#   5]
          
    |psi|^2 = 1.000
==== e(   6) =    -7.04849 eV ==== 
     psi = 0.328*[#  11]+0.328*[#  12]+0.328*[#  14]+0.007*[#   6]+0.001*[#  15]
          
    |psi|^2 = 0.994
==== e(   7) =    -7.02787 eV ==== 
     psi = 0.330*[#  11]+0.330*[#  12]+0.330*[#  14]+0.004*[#   7]+0.004*[#   8]
          +0.004*[#   9]+0.001*[#  10]+0.001*[#  13]
    |psi|^2 = 1.005
==== e(   8) =    -7.02747 eV ==== 
     psi = 0.330*[#  11]+0.330*[#  12]+0.330*[#  14]+0.003*[#   7]+0.003*[#   8]
          +0.003*[#   9]+0.001*[#  10]+0.001*[#  13]
    |psi|^2 = 1.000
==== e(   9) =    -6.96790 eV ==== 
     psi = 0.498*[#  10]+0.498*[#  13]+0.001*[#  11]+0.001*[#  12]+0.001*[#  14]
          
    |psi|^2 = 1.000
==== e(  10) =    -6.96524 eV ==== 
     psi = 0.499*[#  10]+0.499*[#  13]
    |psi|^2 = 1.000
==== e(  11) =    -4.41803 eV ==== 
     psi = 0.561*[#   6]+0.311*[#  15]+0.006*[#  16]+0.006*[#  17]+0.006*[#  18]
          +0.002*[#  11]+0.002*[#  12]+0.002*[#  14]+0.001*[#   7]+0.001*[#   8]
          +0.001*[#   9]
    |psi|^2 = 0.900
==== e(  12) =     5.46454 eV ==== 
     psi = 0.289*[#  15]+0.194*[#   6]+0.042*[#   7]+0.042*[#   8]+0.042*[#   9]
          +0.012*[#  16]+0.012*[#  17]+0.012*[#  18]+0.002*[#  11]+0.002*[#  12]
          +0.002*[#  14]
    |psi|^2 = 0.650
==== e(  13) =     7.25036 eV ==== 
     psi = 0.258*[#   7]+0.258*[#   8]+0.258*[#   9]+0.071*[#  16]+0.071*[#  17]
          +0.071*[#  18]+0.002*[#  11]+0.002*[#  12]+0.002*[#  14]
    |psi|^2 = 0.993
==== e(  14) =     7.31540 eV ==== 
     psi = 0.253*[#   7]+0.253*[#   8]+0.253*[#   9]+0.065*[#  16]+0.065*[#  17]
          +0.065*[#  18]+0.022*[#  15]+0.011*[#   6]+0.002*[#  11]+0.002*[#  12]
          +0.002*[#  14]
    |psi|^2 = 0.992

 k =  -0.1087856586  0.1087856586  0.2175713173
==== e(   1) =   -27.51100 eV ==== 
     psi = 0.333*[#   2]+0.333*[#   3]+0.333*[#   5]
    |psi|^2 = 1.000
==== e(   2) =   -27.51030 eV ==== 
     psi = 0.333*[#   2]+0.333*[#   3]+0.333*[#   5]
    |psi|^2 = 1.000
==== e(   3) =   -27.50990 eV ==== 
     psi = 0.333*[#   2]+0.333*[#   3]+0.333*[#   5]
    |psi|^2 = 1.001
==== e(   4) =   -27.50291 eV ==== 
     psi = 0.500*[#   1]+0.500*[#   4]
    |psi|^2 = 1.000
==== e(   5) =   -27.50260 eV ==== 
     psi = 0.500*[#   1]+0.500*[#   4]
    |psi|^2 = 1.000
==== e(   6) =    -7.06135 eV ==== 
     psi = 0.326*[#  11]+0.326*[#  12]+0.326*[#  14]+0.012*[#   6]+0.002*[#  15]
          
    |psi|^2 = 0.996
==== e(   7) =    -7.02452 eV ==== 
     psi = 0.327*[#  11]+0.327*[#  12]+0.327*[#  14]+0.005*[#  10]+0.005*[#  13]
          +0.003*[#   7]+0.003*[#   8]+0.003*[#   9]
    |psi|^2 = 1.002
==== e(   8) =    -7.02343 eV ==== 
     psi = 0.327*[#  11]+0.327*[#  12]+0.327*[#  14]+0.006*[#  10]+0.006*[#  13]
          +0.003*[#   7]+0.003*[#   8]+0.003*[#   9]
    |psi|^2 = 1.001
==== e(   9) =    -6.96851 eV ==== 
     psi = 0.494*[#  10]+0.494*[#  13]+0.004*[#  11]+0.004*[#  12]+0.004*[#  14]
          
    |psi|^2 = 1.000
==== e(  10) =    -6.96449 eV ==== 
     psi = 0.494*[#  10]+0.494*[#  13]+0.004*[#  11]+0.004*[#  12]+0.004*[#  14]
          
    |psi|^2 = 1.000
==== e(  11) =    -4.15654 eV ==== 
     psi = 0.542*[#   6]+0.258*[#  15]+0.017*[#  16]+0.017*[#  17]+0.017*[#  18]
          +0.004*[#  11]+0.004*[#  12]+0.004*[#  14]+0.003*[#   7]+0.003*[#   8]
          +0.003*[#   9]
    |psi|^2 = 0.872
==== e(  12) =     4.29661 eV ==== 
     psi = 0.278*[#  15]+0.170*[#   6]+0.070*[#   7]+0.070*[#   8]+0.070*[#   9]
          +0.022*[#  16]+0.022*[#  17]+0.022*[#  18]+0.002*[#  11]+0.002*[#  12]
          +0.002*[#  14]
    |psi|^2 = 0.732
==== e(  13) =     6.97807 eV ==== 
     psi = 0.249*[#   7]+0.249*[#   8]+0.249*[#   9]+0.081*[#  16]+0.081*[#  17]
          +0.081*[#  18]+0.002*[#  11]+0.002*[#  12]+0.002*[#  14]
    |psi|^2 = 0.995
==== e(  14) =     7.04005 eV ==== 
     psi = 0.234*[#   7]+0.234*[#   8]+0.234*[#   9]+0.072*[#  16]+0.072*[#  17]
          +0.072*[#  18]+0.046*[#  15]+0.022*[#   6]+0.002*[#  11]+0.002*[#  12]
          +0.002*[#  14]
    |psi|^2 = 0.993

 k =  -0.1631784880  0.1631784880  0.2719641466
==== e(   1) =   -27.51188 eV ==== 
     psi = 0.333*[#   2]+0.333*[#   3]+0.333*[#   5]
    |psi|^2 = 1.000
==== e(   2) =   -27.51077 eV ==== 
     psi = 0.333*[#   2]+0.333*[#   3]+0.333*[#   5]
    |psi|^2 = 1.000
==== e(   3) =   -27.51027 eV ==== 
     psi = 0.333*[#   2]+0.333*[#   3]+0.333*[#   5]
    |psi|^2 = 1.000
==== e(   4) =   -27.50368 eV ==== 
     psi = 0.500*[#   1]+0.500*[#   4]
    |psi|^2 = 1.000
==== e(   5) =   -27.50284 eV ==== 
     psi = 0.499*[#   1]+0.499*[#   4]
    |psi|^2 = 1.000
==== e(   6) =    -7.07558 eV ==== 
     psi = 0.325*[#  11]+0.325*[#  12]+0.325*[#  14]+0.017*[#   6]+0.002*[#  15]
          
    |psi|^2 = 0.997
==== e(   7) =    -7.02107 eV ==== 
     psi = 0.321*[#  11]+0.321*[#  12]+0.321*[#  14]+0.015*[#  10]+0.015*[#  13]
          +0.002*[#   7]+0.002*[#   8]+0.002*[#   9]
    |psi|^2 = 1.000
==== e(   8) =    -7.01973 eV ==== 
     psi = 0.320*[#  11]+0.320*[#  12]+0.320*[#  14]+0.017*[#  10]+0.017*[#  13]
          +0.002*[#   7]+0.002*[#   8]+0.002*[#   9]
    |psi|^2 = 1.001
==== e(   9) =    -6.96822 eV ==== 
     psi = 0.484*[#  10]+0.484*[#  13]+0.011*[#  11]+0.011*[#  12]+0.011*[#  14]
          
    |psi|^2 = 1.000
==== e(  10) =    -6.96409 eV ==== 
     psi = 0.482*[#  10]+0.482*[#  13]+0.012*[#  11]+0.012*[#  12]+0.012*[#  14]
          
    |psi|^2 = 1.000
==== e(  11) =    -3.80674 eV ==== 
     psi = 0.544*[#   6]+0.211*[#  15]+0.026*[#  16]+0.026*[#  17]+0.026*[#  18]
          +0.006*[#  11]+0.006*[#  12]+0.006*[#  14]+0.005*[#   7]+0.005*[#   8]
          +0.005*[#   9]
    |psi|^2 = 0.864
==== e(  12) =     3.17366 eV ==== 
     psi = 0.286*[#  15]+0.138*[#   6]+0.084*[#   7]+0.084*[#   8]+0.084*[#   9]
          +0.029*[#  16]+0.029*[#  17]+0.029*[#  18]+0.002*[#  11]+0.002*[#  12]
          +0.002*[#  14]
    |psi|^2 = 0.768
==== e(  13) =     6.72972 eV ==== 
     psi = 0.221*[#   7]+0.221*[#   8]+0.221*[#   9]+0.079*[#  16]+0.079*[#  17]
          +0.079*[#  18]+0.060*[#  15]+0.030*[#   6]+0.002*[#  11]+0.002*[#  12]
          +0.002*[#  14]
    |psi|^2 = 0.994
==== e(  14) =     6.75952 eV ==== 
     psi = 0.243*[#   7]+0.243*[#   8]+0.243*[#   9]+0.087*[#  16]+0.087*[#  17]
          +0.087*[#  18]+0.002*[#  11]+0.002*[#  12]+0.002*[#  14]
    |psi|^2 = 0.995

 k =  -0.2175713173  0.2175713173  0.3263569759
==== e(   1) =   -27.51132 eV ==== 
     psi = 0.333*[#   2]+0.333*[#   3]+0.333*[#   5]
    |psi|^2 = 1.000
==== e(   2) =   -27.51081 eV ==== 
     psi = 0.333*[#   2]+0.333*[#   3]+0.333*[#   5]
    |psi|^2 = 1.000
==== e(   3) =   -27.51054 eV ==== 
     psi = 0.333*[#   2]+0.333*[#   3]+0.333*[#   5]
    |psi|^2 = 1.000
==== e(   4) =   -27.50284 eV ==== 
     psi = 0.500*[#   1]+0.500*[#   4]
    |psi|^2 = 1.000
==== e(   5) =   -27.50248 eV ==== 
     psi = 0.500*[#   1]+0.500*[#   4]
    |psi|^2 = 1.000
==== e(   6) =    -7.08775 eV ==== 
     psi = 0.324*[#  11]+0.324*[#  12]+0.324*[#  14]+0.022*[#   6]+0.002*[#  15]
          
    |psi|^2 = 0.997
==== e(   7) =    -7.01820 eV ==== 
     psi = 0.311*[#  11]+0.311*[#  12]+0.311*[#  14]+0.030*[#  10]+0.030*[#  13]
          +0.001*[#   7]+0.001*[#   8]+0.001*[#   9]
    |psi|^2 = 0.999
==== e(   8) =    -7.01680 eV ==== 
     psi = 0.310*[#  11]+0.310*[#  12]+0.310*[#  14]+0.033*[#  10]+0.033*[#  13]
          +0.002*[#   7]+0.002*[#   8]+0.002*[#   9]
    |psi|^2 = 1.001
==== e(   9) =    -6.96696 eV ==== 
     psi = 0.469*[#  10]+0.469*[#  13]+0.020*[#  11]+0.020*[#  12]+0.020*[#  14]
          
    |psi|^2 = 1.000
==== e(  10) =    -6.96309 eV ==== 
     psi = 0.467*[#  10]+0.467*[#  13]+0.022*[#  11]+0.022*[#  12]+0.022*[#  14]
          
    |psi|^2 = 1.000
==== e(  11) =    -3.42170 eV ==== 
     psi = 0.569*[#   6]+0.172*[#  15]+0.031*[#  16]+0.031*[#  17]+0.031*[#  18]
          +0.008*[#  11]+0.008*[#  12]+0.008*[#  14]+0.005*[#   7]+0.005*[#   8]
          +0.005*[#   9]
    |psi|^2 = 0.874
==== e(  12) =     2.21919 eV ==== 
     psi = 0.304*[#  15]+0.093*[#   6]+0.091*[#   7]+0.091*[#   8]+0.091*[#   9]
          +0.035*[#  16]+0.035*[#  17]+0.035*[#  18]+0.001*[#  11]+0.001*[#  12]
          +0.001*[#  14]
    |psi|^2 = 0.781
==== e(  13) =     6.45543 eV ==== 
     psi = 0.213*[#   7]+0.213*[#   8]+0.213*[#   9]+0.084*[#  16]+0.084*[#  17]
          +0.084*[#  18]+0.064*[#  15]+0.034*[#   6]+0.001*[#  11]+0.001*[#  12]
          +0.001*[#  14]
    |psi|^2 = 0.995
==== e(  14) =     6.62381 eV ==== 
     psi = 0.240*[#   7]+0.240*[#   8]+0.240*[#   9]+0.090*[#  16]+0.090*[#  17]
          +0.090*[#  18]+0.001*[#  11]+0.001*[#  12]+0.001*[#  14]
    |psi|^2 = 0.996

 k =  -0.2719641466  0.2719641466  0.3807498053
==== e(   1) =   -27.51253 eV ==== 
     psi = 0.333*[#   2]+0.333*[#   3]+0.333*[#   5]
    |psi|^2 = 1.000
==== e(   2) =   -27.51151 eV ==== 
     psi = 0.333*[#   2]+0.333*[#   3]+0.333*[#   5]
    |psi|^2 = 1.000
==== e(   3) =   -27.51122 eV ==== 
     psi = 0.333*[#   2]+0.333*[#   3]+0.333*[#   5]
    |psi|^2 = 1.000
==== e(   4) =   -27.50260 eV ==== 
     psi = 0.500*[#   1]+0.500*[#   4]
    |psi|^2 = 1.000
==== e(   5) =   -27.50240 eV ==== 
     psi = 0.500*[#   1]+0.500*[#   4]
    |psi|^2 = 1.000
==== e(   6) =    -7.09598 eV ==== 
     psi = 0.323*[#  11]+0.323*[#  12]+0.323*[#  14]+0.025*[#   6]+0.002*[#  15]
          
    |psi|^2 = 0.998
==== e(   7) =    -7.01665 eV ==== 
     psi = 0.302*[#  11]+0.302*[#  12]+0.302*[#  14]+0.044*[#  10]+0.044*[#  13]
          
    |psi|^2 = 0.998
==== e(   8) =    -7.01536 eV ==== 
     psi = 0.302*[#  11]+0.302*[#  12]+0.302*[#  14]+0.044*[#  10]+0.044*[#  13]
          +0.002*[#   7]+0.002*[#   8]+0.002*[#   9]
    |psi|^2 = 1.001
==== e(   9) =    -6.96534 eV ==== 
     psi = 0.455*[#  10]+0.455*[#  13]+0.029*[#  11]+0.029*[#  12]+0.029*[#  14]
          
    |psi|^2 = 1.000
==== e(  10) =    -6.96277 eV ==== 
     psi = 0.455*[#  10]+0.455*[#  13]+0.030*[#  11]+0.030*[#  12]+0.030*[#  14]
          
    |psi|^2 = 1.000
==== e(  11) =    -3.10553 eV ==== 
     psi = 0.608*[#   6]+0.142*[#  15]+0.035*[#  16]+0.035*[#  17]+0.035*[#  18]
          +0.009*[#  11]+0.009*[#  12]+0.009*[#  14]+0.004*[#   7]+0.004*[#   8]
          +0.004*[#   9]
    |psi|^2 = 0.897
==== e(  12) =     1.56916 eV ==== 
     psi = 0.324*[#  15]+0.097*[#   7]+0.097*[#   8]+0.097*[#   9]+0.045*[#   6]
          +0.039*[#  16]+0.039*[#  17]+0.039*[#  18]
    |psi|^2 = 0.778
==== e(  13) =     6.25477 eV ==== 
     psi = 0.209*[#   7]+0.209*[#   8]+0.209*[#   9]+0.088*[#  16]+0.088*[#  17]
          +0.088*[#  18]+0.063*[#  15]+0.036*[#   6]+0.001*[#  11]+0.001*[#  12]
          +0.001*[#  14]
    |psi|^2 = 0.995
==== e(  14) =     6.58289 eV ==== 
     psi = 0.240*[#   7]+0.240*[#   8]+0.240*[#   9]+0.091*[#  16]+0.091*[#  17]
          +0.091*[#  18]+0.001*[#  11]+0.001*[#  12]+0.001*[#  14]
    |psi|^2 = 0.996

 k =   0.3807498053 -0.3807498053 -0.2719641466
==== e(   1) =   -27.51177 eV ==== 
     psi = 0.333*[#   2]+0.333*[#   3]+0.333*[#   5]
    |psi|^2 = 1.000
==== e(   2) =   -27.51071 eV ==== 
     psi = 0.333*[#   2]+0.333*[#   3]+0.333*[#   5]
    |psi|^2 = 1.000
==== e(   3) =   -27.51000 eV ==== 
     psi = 0.333*[#   2]+0.333*[#   3]+0.333*[#   5]
    |psi|^2 = 1.000
==== e(   4) =   -27.50263 eV ==== 
     psi = 0.500*[#   1]+0.500*[#   4]
    |psi|^2 = 1.000
==== e(   5) =   -27.50173 eV ==== 
     psi = 0.500*[#   1]+0.500*[#   4]
    |psi|^2 = 1.000
==== e(   6) =    -7.09776 eV ==== 
     psi = 0.323*[#  11]+0.323*[#  12]+0.323*[#  14]+0.025*[#   6]+0.002*[#  15]
          
    |psi|^2 = 0.998
==== e(   7) =    -7.01588 eV ==== 
     psi = 0.298*[#  11]+0.298*[#  12]+0.298*[#  14]+0.049*[#  10]+0.049*[#  13]
          
    |psi|^2 = 0.997
==== e(   8) =    -7.01498 eV ==== 
     psi = 0.300*[#  11]+0.300*[#  12]+0.300*[#  14]+0.047*[#  10]+0.047*[#  13]
          +0.002*[#   7]+0.002*[#   8]+0.002*[#   9]
    |psi|^2 = 1.001
==== e(   9) =    -6.96409 eV ==== 
     psi = 0.450*[#  10]+0.450*[#  13]+0.033*[#  11]+0.033*[#  12]+0.033*[#  14]
          
    |psi|^2 = 1.000
==== e(  10) =    -6.96323 eV ==== 
     psi = 0.453*[#  10]+0.453*[#  13]+0.031*[#  11]+0.031*[#  12]+0.031*[#  14]
          
    |psi|^2 = 1.000
==== e(  11) =    -3.00887 eV ==== 
     psi = 0.624*[#   6]+0.133*[#  15]+0.042*[#  16]+0.042*[#  17]+0.042*[#  18]
          +0.010*[#  11]+0.010*[#  12]+0.010*[#  14]+0.005*[#   7]+0.005*[#   8]
          +0.005*[#   9]
    |psi|^2 = 0.925
==== e(  12) =     1.38867 eV ==== 
     psi = 0.331*[#  15]+0.101*[#   7]+0.101*[#   8]+0.101*[#   9]+0.037*[#  16]
          +0.037*[#  17]+0.037*[#  18]+0.028*[#   6]
    |psi|^2 = 0.773
==== e(  13) =     6.14689 eV ==== 
     psi = 0.208*[#   7]+0.208*[#   8]+0.208*[#   9]+0.091*[#  16]+0.091*[#  17]
          +0.091*[#  18]+0.060*[#  15]+0.035*[#   6]+0.001*[#  11]+0.001*[#  12]
          +0.001*[#  14]
    |psi|^2 = 0.996
==== e(  14) =     6.63816 eV ==== 
     psi = 0.242*[#   7]+0.242*[#   8]+0.242*[#   9]+0.089*[#  16]+0.089*[#  17]
          +0.089*[#  18]+0.001*[#  11]+0.001*[#  12]+0.001*[#  14]
    |psi|^2 = 0.996

 k =   0.3263569759 -0.3263569759 -0.2175713173
==== e(   1) =   -27.51201 eV ==== 
     psi = 0.333*[#   2]+0.333*[#   3]+0.333*[#   5]
    |psi|^2 = 1.000
==== e(   2) =   -27.51109 eV ==== 
     psi = 0.333*[#   2]+0.333*[#   3]+0.333*[#   5]
    |psi|^2 = 1.000
==== e(   3) =   -27.51108 eV ==== 
     psi = 0.333*[#   2]+0.333*[#   3]+0.333*[#   5]
    |psi|^2 = 1.000
==== e(   4) =   -27.50234 eV ==== 
     psi = 0.499*[#   1]+0.499*[#   4]
    |psi|^2 = 1.000
==== e(   5) =   -27.50193 eV ==== 
     psi = 0.500*[#   1]+0.500*[#   4]
    |psi|^2 = 1.000
==== e(   6) =    -7.09358 eV ==== 
     psi = 0.323*[#  11]+0.323*[#  12]+0.323*[#  14]+0.024*[#   6]+0.002*[#  15]
          
    |psi|^2 = 0.999
==== e(   7) =    -7.01649 eV ==== 
     psi = 0.306*[#  11]+0.306*[#  12]+0.306*[#  14]+0.037*[#  10]+0.037*[#  13]
          +0.002*[#   7]+0.002*[#   8]+0.002*[#   9]
    |psi|^2 = 1.001
==== e(   8) =    -7.01643 eV ==== 
     psi = 0.303*[#  11]+0.303*[#  12]+0.303*[#  14]+0.043*[#  10]+0.043*[#  13]
          
    |psi|^2 = 0.997
==== e(   9) =    -6.96482 eV ==== 
     psi = 0.462*[#  10]+0.462*[#  13]+0.025*[#  11]+0.025*[#  12]+0.025*[#  14]
          
    |psi|^2 = 1.000
==== e(  10) =    -6.96364 eV ==== 
     psi = 0.456*[#  10]+0.456*[#  13]+0.029*[#  11]+0.029*[#  12]+0.029*[#  14]
          
    |psi|^2 = 1.000
==== e(  11) =    -3.19490 eV ==== 
     psi = 0.595*[#   6]+0.151*[#  15]+0.050*[#  16]+0.050*[#  17]+0.050*[#  18]
          +0.009*[#  11]+0.009*[#  12]+0.009*[#  14]+0.007*[#   7]+0.007*[#   8]
          +0.007*[#   9]
    |psi|^2 = 0.943
==== e(  12) =     1.74387 eV ==== 
     psi = 0.317*[#  15]+0.103*[#   7]+0.103*[#   8]+0.103*[#   9]+0.060*[#   6]
          +0.030*[#  16]+0.030*[#  17]+0.030*[#  18]
    |psi|^2 = 0.781
==== e(  13) =     6.14231 eV ==== 
     psi = 0.209*[#   7]+0.209*[#   8]+0.209*[#   9]+0.092*[#  16]+0.092*[#  17]
          +0.092*[#  18]+0.057*[#  15]+0.032*[#   6]+0.001*[#  11]+0.001*[#  12]
          +0.001*[#  14]
    |psi|^2 = 0.995
==== e(  14) =     6.78258 eV ==== 
     psi = 0.246*[#   7]+0.246*[#   8]+0.246*[#   9]+0.085*[#  16]+0.085*[#  17]
          +0.085*[#  18]+0.001*[#  11]+0.001*[#  12]+0.001*[#  14]
    |psi|^2 = 0.996

 k =   0.2719641466 -0.2719641466 -0.1631784880
==== e(   1) =   -27.51145 eV ==== 
     psi = 0.333*[#   2]+0.333*[#   3]+0.333*[#   5]
    |psi|^2 = 1.000
==== e(   2) =   -27.51140 eV ==== 
     psi = 0.333*[#   2]+0.333*[#   3]+0.333*[#   5]
    |psi|^2 = 1.000
==== e(   3) =   -27.50957 eV ==== 
     psi = 0.333*[#   2]+0.333*[#   3]+0.333*[#   5]
    |psi|^2 = 1.000
==== e(   4) =   -27.50297 eV ==== 
     psi = 0.500*[#   1]+0.500*[#   4]
    |psi|^2 = 1.000
==== e(   5) =   -27.50259 eV ==== 
     psi = 0.499*[#   1]+0.499*[#   4]
    |psi|^2 = 1.000
==== e(   6) =    -7.08337 eV ==== 
     psi = 0.324*[#  11]+0.324*[#  12]+0.324*[#  14]+0.021*[#   6]+0.002*[#  15]
          
    |psi|^2 = 0.999
==== e(   7) =    -7.01931 eV ==== 
     psi = 0.315*[#  11]+0.315*[#  12]+0.315*[#  14]+0.023*[#  10]+0.023*[#  13]
          +0.002*[#   7]+0.002*[#   8]+0.002*[#   9]
    |psi|^2 = 1.001
==== e(   8) =    -7.01815 eV ==== 
     psi = 0.312*[#  11]+0.312*[#  12]+0.312*[#  14]+0.029*[#  10]+0.029*[#  13]
          
    |psi|^2 = 0.997
==== e(   9) =    -6.96654 eV ==== 
     psi = 0.476*[#  10]+0.476*[#  13]+0.016*[#  11]+0.016*[#  12]+0.016*[#  14]
          
    |psi|^2 = 1.000
==== e(  10) =    -6.96417 eV ==== 
     psi = 0.470*[#  10]+0.470*[#  13]+0.020*[#  11]+0.020*[#  12]+0.020*[#  14]
          
    |psi|^2 = 1.000
==== e(  11) =    -3.54979 eV ==== 
     psi = 0.558*[#   6]+0.184*[#  15]+0.054*[#  16]+0.054*[#  17]+0.054*[#  18]
          +0.010*[#   7]+0.010*[#   8]+0.010*[#   9]+0.007*[#  11]+0.007*[#  12]
          +0.007*[#  14]
    |psi|^2 = 0.956
==== e(  12) =     2.51348 eV ==== 
     psi = 0.297*[#  15]+0.109*[#   6]+0.108*[#   7]+0.108*[#   8]+0.108*[#   9]
          +0.023*[#  16]+0.023*[#  17]+0.023*[#  18]+0.001*[#  11]+0.001*[#  12]
          +0.001*[#  14]
    |psi|^2 = 0.802
==== e(  13) =     6.24699 eV ==== 
     psi = 0.213*[#   7]+0.213*[#   8]+0.213*[#   9]+0.091*[#  16]+0.091*[#  17]
          +0.091*[#  18]+0.053*[#  15]+0.026*[#   6]+0.001*[#  11]+0.001*[#  12]
          +0.001*[#  14]
    |psi|^2 = 0.995
==== e(  14) =     7.00051 eV ==== 
     psi = 0.252*[#   7]+0.252*[#   8]+0.252*[#   9]+0.078*[#  16]+0.078*[#  17]
          +0.078*[#  18]+0.002*[#  11]+0.002*[#  12]+0.002*[#  14]
    |psi|^2 = 0.996

 k =   0.2175713173 -0.2175713173 -0.1087856586
==== e(   1) =   -27.51057 eV ==== 
     psi = 0.333*[#   2]+0.333*[#   3]+0.333*[#   5]
    |psi|^2 = 1.000
==== e(   2) =   -27.51031 eV ==== 
     psi = 0.333*[#   2]+0.333*[#   3]+0.333*[#   5]
    |psi|^2 = 1.000
==== e(   3) =   -27.50996 eV ==== 
     psi = 0.332*[#   2]+0.332*[#   3]+0.332*[#   5]+0.001*[#   1]+0.001*[#   4]
          
    |psi|^2 = 1.000
==== e(   4) =   -27.50275 eV ==== 
     psi = 0.500*[#   1]+0.500*[#   4]
    |psi|^2 = 1.000
==== e(   5) =   -27.50253 eV ==== 
     psi = 0.499*[#   1]+0.499*[#   4]
    |psi|^2 = 1.000
==== e(   6) =    -7.07022 eV ==== 
     psi = 0.325*[#  11]+0.325*[#  12]+0.325*[#  14]+0.016*[#   6]+0.002*[#  15]
          
    |psi|^2 = 0.999
==== e(   7) =    -7.02277 eV ==== 
     psi = 0.323*[#  11]+0.323*[#  12]+0.323*[#  14]+0.011*[#  10]+0.011*[#  13]
          +0.002*[#   7]+0.002*[#   8]+0.002*[#   9]
    |psi|^2 = 1.001
==== e(   8) =    -7.02086 eV ==== 
     psi = 0.322*[#  11]+0.322*[#  12]+0.322*[#  14]+0.014*[#  10]+0.014*[#  13]
          
    |psi|^2 = 0.996
==== e(   9) =    -6.96748 eV ==== 
     psi = 0.488*[#  10]+0.488*[#  13]+0.008*[#  11]+0.008*[#  12]+0.008*[#  14]
          
    |psi|^2 = 1.000
==== e(  10) =    -6.96477 eV ==== 
     psi = 0.485*[#  10]+0.485*[#  13]+0.010*[#  11]+0.010*[#  12]+0.010*[#  14]
          
    |psi|^2 = 1.000
==== e(  11) =    -3.93146 eV ==== 
     psi = 0.541*[#   6]+0.226*[#  15]+0.052*[#  16]+0.052*[#  17]+0.052*[#  18]
          +0.010*[#   7]+0.010*[#   8]+0.010*[#   9]+0.005*[#  11]+0.005*[#  12]
          +0.005*[#  14]
    |psi|^2 = 0.971
==== e(  12) =     3.53356 eV ==== 
     psi = 0.281*[#  15]+0.149*[#   6]+0.116*[#   7]+0.116*[#   8]+0.116*[#   9]
          +0.016*[#  16]+0.016*[#  17]+0.016*[#  18]+0.002*[#  11]+0.002*[#  12]
          +0.002*[#  14]
    |psi|^2 = 0.834
==== e(  13) =     6.46339 eV ==== 
     psi = 0.220*[#   7]+0.220*[#   8]+0.220*[#   9]+0.088*[#  16]+0.088*[#  17]
          +0.088*[#  18]+0.045*[#  15]+0.019*[#   6]+0.002*[#  11]+0.002*[#  12]
          +0.002*[#  14]
    |psi|^2 = 0.994
==== e(  14) =     7.26348 eV ==== 
     psi = 0.260*[#   7]+0.260*[#   8]+0.260*[#   9]+0.069*[#  16]+0.069*[#  17]
          +0.069*[#  18]+0.002*[#  11]+0.002*[#  12]+0.002*[#  14]
    |psi|^2 = 0.995

 k =   0.1631784880 -0.1631784880 -0.0543928293
==== e(   1) =   -27.51173 eV ==== 
     psi = 0.333*[#   2]+0.333*[#   3]+0.333*[#   5]
    |psi|^2 = 1.000
==== e(   2) =   -27.51052 eV ==== 
     psi = 0.333*[#   2]+0.333*[#   3]+0.333*[#   5]
    |psi|^2 = 1.000
==== e(   3) =   -27.50961 eV ==== 
     psi = 0.333*[#   2]+0.333*[#   3]+0.333*[#   5]
    |psi|^2 = 0.999
==== e(   4) =   -27.50318 eV ==== 
     psi = 0.500*[#   1]+0.500*[#   4]
    |psi|^2 = 1.000
==== e(   5) =   -27.50294 eV ==== 
     psi = 0.499*[#   1]+0.499*[#   4]
    |psi|^2 = 1.000
==== e(   6) =    -7.05611 eV ==== 
     psi = 0.327*[#  11]+0.327*[#  12]+0.327*[#  14]+0.010*[#   6]+0.002*[#   7]
          +0.002*[#   8]+0.002*[#   9]+0.002*[#  15]
    |psi|^2 = 1.000
==== e(   7) =    -7.02704 eV ==== 
     psi = 0.328*[#  11]+0.328*[#  12]+0.328*[#  14]+0.004*[#  10]+0.004*[#  13]
          +0.003*[#   7]+0.003*[#   8]+0.003*[#   9]
    |psi|^2 = 1.000
==== e(   8) =    -7.02451 eV ==== 
     psi = 0.328*[#  11]+0.328*[#  12]+0.328*[#  14]+0.004*[#  10]+0.004*[#  13]
          
    |psi|^2 = 0.996
==== e(   9) =    -6.96774 eV ==== 
     psi = 0.496*[#  10]+0.496*[#  13]+0.003*[#  11]+0.003*[#  12]+0.003*[#  14]
          
    |psi|^2 = 1.000
==== e(  10) =    -6.96538 eV ==== 
     psi = 0.495*[#  10]+0.495*[#  13]+0.003*[#  11]+0.003*[#  12]+0.003*[#  14]
          
    |psi|^2 = 1.000
==== e(  11) =    -4.25575 eV ==== 
     psi = 0.547*[#   6]+0.276*[#  15]+0.043*[#  16]+0.043*[#  17]+0.043*[#  18]
          +0.009*[#   7]+0.009*[#   8]+0.009*[#   9]+0.003*[#  11]+0.003*[#  12]
          +0.003*[#  14]
    |psi|^2 = 0.987
==== e(  12) =     4.67060 eV ==== 
     psi = 0.276*[#  15]+0.177*[#   6]+0.130*[#   7]+0.130*[#   8]+0.130*[#   9]
          +0.012*[#  16]+0.012*[#  17]+0.012*[#  18]+0.002*[#  11]+0.002*[#  12]
          +0.002*[#  14]
    |psi|^2 = 0.886
==== e(  13) =     6.79206 eV ==== 
     psi = 0.233*[#   7]+0.233*[#   8]+0.233*[#   9]+0.082*[#  16]+0.082*[#  17]
          +0.082*[#  18]+0.031*[#  15]+0.010*[#   6]+0.002*[#  11]+0.002*[#  12]
          +0.002*[#  14]
    |psi|^2 = 0.992
==== e(  14) =     7.52098 eV ==== 
     psi = 0.272*[#   7]+0.272*[#   8]+0.272*[#   9]+0.057*[#  16]+0.057*[#  17]
          +0.057*[#  18]+0.002*[#  11]+0.002*[#  12]+0.002*[#  14]
    |psi|^2 = 0.994

 k =   0.1087856586 -0.1087856586  0.0000000000
==== e(   1) =   -27.51186 eV ==== 
     psi = 0.333*[#   2]+0.333*[#   3]+0.333*[#   5]
    |psi|^2 = 1.000
==== e(   2) =   -27.51054 eV ==== 
     psi = 0.333*[#   2]+0.333*[#   3]+0.333*[#   5]
    |psi|^2 = 1.000
==== e(   3) =   -27.51026 eV ==== 
     psi = 0.333*[#   2]+0.333*[#   3]+0.333*[#   5]
    |psi|^2 = 0.999
==== e(   4) =   -27.50420 eV ==== 
     psi = 0.500*[#   1]+0.500*[#   4]
    |psi|^2 = 1.000
==== e(   5) =   -27.50309 eV ==== 
     psi = 0.500*[#   1]+0.500*[#   4]
    |psi|^2 = 1.000
==== e(   6) =    -7.04406 eV ==== 
     psi = 0.329*[#  11]+0.329*[#  12]+0.329*[#  14]+0.005*[#   6]+0.002*[#   7]
          +0.002*[#   8]+0.002*[#   9]
    |psi|^2 = 1.000
==== e(   7) =    -7.03028 eV ==== 
     psi = 0.329*[#  11]+0.329*[#  12]+0.329*[#  14]+0.003*[#   7]+0.003*[#   8]
          +0.003*[#   9]+0.002*[#  10]+0.002*[#  13]
    |psi|^2 = 1.000
==== e(   8) =    -7.02856 eV ==== 
     psi = 0.330*[#  11]+0.330*[#  12]+0.330*[#  14]+0.001*[#   7]+0.001*[#   8]
          +0.001*[#   9]
    |psi|^2 = 0.995
==== e(   9) =    -6.96738 eV ==== 
     psi = 0.498*[#  10]+0.498*[#  13]+0.001*[#  11]+0.001*[#  12]+0.001*[#  14]
          
    |psi|^2 = 1.000
==== e(  10) =    -6.96584 eV ==== 
     psi = 0.499*[#  10]+0.499*[#  13]
    |psi|^2 = 1.000
==== e(  11) =    -4.48093 eV ==== 
     psi = 0.570*[#   6]+0.329*[#  15]+0.025*[#  16]+0.025*[#  17]+0.025*[#  18]
          +0.005*[#   7]+0.005*[#   8]+0.005*[#   9]+0.002*[#  11]+0.002*[#  12]
          +0.002*[#  14]
    |psi|^2 = 0.997
==== e(  12) =     5.76417 eV ==== 
     psi = 0.284*[#  15]+0.193*[#   6]+0.144*[#   7]+0.144*[#   8]+0.144*[#   9]
          +0.011*[#  16]+0.011*[#  17]+0.011*[#  18]+0.002*[#  11]+0.002*[#  12]
          +0.002*[#  14]
    |psi|^2 = 0.947
==== e(  13) =     7.23741 eV ==== 
     psi = 0.254*[#   7]+0.254*[#   8]+0.254*[#   9]+0.070*[#  16]+0.070*[#  17]
          +0.070*[#  18]+0.012*[#  15]+0.002*[#   6]+0.002*[#  11]+0.002*[#  12]
          +0.002*[#  14]
    |psi|^2 = 0.992
==== e(  14) =     7.69267 eV ==== 
     psi = 0.281*[#   7]+0.281*[#   8]+0.281*[#   9]+0.047*[#  16]+0.047*[#  17]
          +0.047*[#  18]+0.003*[#  11]+0.003*[#  12]+0.003*[#  14]
    |psi|^2 = 0.992

 k =   0.0000000000  0.0000000000  0.2175713173
==== e(   1) =   -27.51152 eV ==== 
     psi = 0.333*[#   2]+0.333*[#   3]+0.333*[#   5]
    |psi|^2 = 1.000
==== e(   2) =   -27.51053 eV ==== 
     psi = 0.333*[#   2]+0.333*[#   3]+0.333*[#   5]
    |psi|^2 = 1.000
==== e(   3) =   -27.51053 eV ==== 
     psi = 0.333*[#   2]+0.333*[#   3]+0.333*[#   5]
    |psi|^2 = 1.000
==== e(   4) =   -27.50293 eV ==== 
     psi = 0.500*[#   1]+0.500*[#   4]
    |psi|^2 = 1.000
==== e(   5) =   -27.50280 eV ==== 
     psi = 0.500*[#   1]+0.500*[#   4]
    |psi|^2 = 1.000
==== e(   6) =    -7.05689 eV ==== 
     psi = 0.327*[#  11]+0.327*[#  12]+0.327*[#  14]+0.009*[#   6]+0.001*[#  15]
          +0.001*[#  10]+0.001*[#  13]
    |psi|^2 = 0.993
==== e(   7) =    -7.02423 eV ==== 
     psi = 0.331*[#  11]+0.331*[#  12]+0.331*[#  14]+0.004*[#   7]+0.004*[#   8]
          +0.004*[#   9]
    |psi|^2 = 1.007
==== e(   8) =    -7.02423 eV ==== 
     psi = 0.331*[#  11]+0.331*[#  12]+0.331*[#  14]+0.002*[#   7]+0.002*[#   8]
          +0.002*[#   9]
    |psi|^2 = 1.000
==== e(   9) =    -6.96987 eV ==== 
     psi = 0.498*[#  10]+0.498*[#  13]
    |psi|^2 = 1.000
==== e(  10) =    -6.96402 eV ==== 
     psi = 0.500*[#  10]+0.500*[#  13]
    |psi|^2 = 1.000
==== e(  11) =    -4.31355 eV ==== 
     psi = 0.550*[#   6]+0.285*[#  15]+0.003*[#  11]+0.003*[#  12]+0.003*[#  14]
          
    |psi|^2 = 0.844
==== e(  12) =     5.14970 eV ==== 
     psi = 0.320*[#  15]+0.212*[#   6]+0.002*[#  11]+0.002*[#  12]+0.002*[#  14]
          
    |psi|^2 = 0.539
==== e(  13) =     6.94760 eV ==== 
     psi = 0.247*[#   7]+0.247*[#   8]+0.247*[#   9]+0.082*[#  16]+0.082*[#  17]
          +0.082*[#  18]+0.002*[#  11]+0.002*[#  12]+0.002*[#  14]
    |psi|^2 = 0.994
==== e(  14) =     6.94760 eV ==== 
     psi = 0.247*[#   7]+0.247*[#   8]+0.247*[#   9]+0.082*[#  16]+0.082*[#  17]
          +0.082*[#  18]+0.002*[#  11]+0.002*[#  12]+0.002*[#  14]
    |psi|^2 = 0.994

 k =  -0.0543928293  0.0543928293  0.2719641466
==== e(   1) =   -27.51133 eV ==== 
     psi = 0.333*[#   2]+0.333*[#   3]+0.333*[#   5]
    |psi|^2 = 1.000
==== e(   2) =   -27.51091 eV ==== 
     psi = 0.333*[#   2]+0.333*[#   3]+0.333*[#   5]
    |psi|^2 = 1.000
==== e(   3) =   -27.51054 eV ==== 
     psi = 0.333*[#   2]+0.333*[#   3]+0.333*[#   5]
    |psi|^2 = 1.000
==== e(   4) =   -27.50276 eV ==== 
     psi = 0.499*[#   1]+0.499*[#   4]
    |psi|^2 = 1.000
==== e(   5) =   -27.50268 eV ==== 
     psi = 0.500*[#   1]+0.500*[#   4]
    |psi|^2 = 1.000
==== e(   6) =    -7.06821 eV ==== 
     psi = 0.326*[#  11]+0.326*[#  12]+0.326*[#  14]+0.013*[#   6]+0.002*[#  15]
          
    |psi|^2 = 0.994
==== e(   7) =    -7.02053 eV ==== 
     psi = 0.330*[#  11]+0.330*[#  12]+0.330*[#  14]+0.003*[#   7]+0.003*[#   8]
          +0.003*[#   9]+0.002*[#  10]+0.002*[#  13]
    |psi|^2 = 1.005
==== e(   8) =    -7.02004 eV ==== 
     psi = 0.330*[#  11]+0.330*[#  12]+0.330*[#  14]+0.002*[#   7]+0.002*[#   8]
          +0.002*[#   9]+0.002*[#  10]+0.002*[#  13]
    |psi|^2 = 1.000
==== e(   9) =    -6.97139 eV ==== 
     psi = 0.497*[#  10]+0.497*[#  13]+0.002*[#  11]+0.002*[#  12]+0.002*[#  14]
          
    |psi|^2 = 1.000
==== e(  10) =    -6.96302 eV ==== 
     psi = 0.498*[#  10]+0.498*[#  13]+0.001*[#  11]+0.001*[#  12]+0.001*[#  14]
          
    |psi|^2 = 1.000
==== e(  11) =    -4.09263 eV ==== 
     psi = 0.538*[#   6]+0.244*[#  15]+0.004*[#  11]+0.004*[#  12]+0.004*[#  14]
          +0.004*[#  16]+0.004*[#  17]+0.004*[#  18]
    |psi|^2 = 0.809
==== e(  12) =     4.33839 eV ==== 
     psi = 0.315*[#  15]+0.194*[#   6]+0.022*[#   7]+0.022*[#   8]+0.022*[#   9]
          +0.008*[#  16]+0.008*[#  17]+0.008*[#  18]+0.002*[#  11]+0.002*[#  12]
          +0.002*[#  14]
    |psi|^2 = 0.605
==== e(  13) =     6.62047 eV ==== 
     psi = 0.230*[#   7]+0.230*[#   8]+0.230*[#   9]+0.087*[#  16]+0.087*[#  17]
          +0.087*[#  18]+0.026*[#  15]+0.010*[#   6]+0.002*[#  11]+0.002*[#  12]
          +0.002*[#  14]
    |psi|^2 = 0.994
==== e(  14) =     6.65652 eV ==== 
     psi = 0.239*[#   7]+0.239*[#   8]+0.239*[#   9]+0.091*[#  16]+0.091*[#  17]
          +0.091*[#  18]+0.002*[#  11]+0.002*[#  12]+0.002*[#  14]
    |psi|^2 = 0.995

 k =  -0.1087856586  0.1087856586  0.3263569759
==== e(   1) =   -27.51174 eV ==== 
     psi = 0.333*[#   2]+0.333*[#   3]+0.333*[#   5]
    |psi|^2 = 1.000
==== e(   2) =   -27.51172 eV ==== 
     psi = 0.333*[#   2]+0.333*[#   3]+0.333*[#   5]
    |psi|^2 = 1.000
==== e(   3) =   -27.51050 eV ==== 
     psi = 0.333*[#   2]+0.333*[#   3]+0.333*[#   5]
    |psi|^2 = 1.000
==== e(   4) =   -27.50383 eV ==== 
     psi = 0.500*[#   1]+0.500*[#   4]
    |psi|^2 = 1.000
==== e(   5) =   -27.50326 eV ==== 
     psi = 0.500*[#   1]+0.500*[#   4]
    |psi|^2 = 1.000
==== e(   6) =    -7.08032 eV ==== 
     psi = 0.325*[#  11]+0.325*[#  12]+0.325*[#  14]+0.018*[#   6]+0.002*[#  15]
          
    |psi|^2 = 0.995
==== e(   7) =    -7.01754 eV ==== 
     psi = 0.325*[#  11]+0.325*[#  12]+0.325*[#  14]+0.009*[#  10]+0.009*[#  13]
          +0.002*[#   7]+0.002*[#   8]+0.002*[#   9]
    |psi|^2 = 1.003
==== e(   8) =    -7.01603 eV ==== 
     psi = 0.325*[#  11]+0.325*[#  12]+0.325*[#  14]+0.010*[#  10]+0.010*[#  13]
          +0.002*[#   7]+0.002*[#   8]+0.002*[#   9]
    |psi|^2 = 1.000
==== e(   9) =    -6.97220 eV ==== 
     psi = 0.490*[#  10]+0.490*[#  13]+0.006*[#  11]+0.006*[#  12]+0.006*[#  14]
          
    |psi|^2 = 1.000
==== e(  10) =    -6.96250 eV ==== 
     psi = 0.490*[#  10]+0.490*[#  13]+0.007*[#  11]+0.007*[#  12]+0.007*[#  14]
          
    |psi|^2 = 1.000
==== e(  11) =    -3.77541 eV ==== 
     psi = 0.540*[#   6]+0.201*[#  15]+0.012*[#  16]+0.012*[#  17]+0.012*[#  18]
          +0.006*[#  11]+0.006*[#  12]+0.006*[#  14]+0.002*[#   7]+0.002*[#   8]
          +0.002*[#   9]
    |psi|^2 = 0.800
==== e(  12) =     3.37339 eV ==== 
     psi = 0.314*[#  15]+0.161*[#   6]+0.048*[#   7]+0.048*[#   8]+0.048*[#   9]
          +0.020*[#  16]+0.020*[#  17]+0.020*[#  18]+0.002*[#  11]+0.002*[#  12]
          +0.002*[#  14]
    |psi|^2 = 0.686
==== e(  13) =     6.21982 eV ==== 
     psi = 0.211*[#   7]+0.211*[#   8]+0.211*[#   9]+0.090*[#  16]+0.090*[#  17]
          +0.090*[#  18]+0.060*[#  15]+0.026*[#   6]+0.001*[#  11]+0.001*[#  12]
          +0.001*[#  14]
    |psi|^2 = 0.994
==== e(  14) =     6.43210 eV ==== 
     psi = 0.234*[#   7]+0.234*[#   8]+0.234*[#   9]+0.096*[#  16]+0.096*[#  17]
          +0.096*[#  18]+0.002*[#  11]+0.002*[#  12]+0.002*[#  14]
    |psi|^2 = 0.996

 k =  -0.1631784880  0.1631784880  0.3807498053
==== e(   1) =   -27.51082 eV ==== 
     psi = 0.333*[#   2]+0.333*[#   3]+0.333*[#   5]
    |psi|^2 = 1.000
==== e(   2) =   -27.51058 eV ==== 
     psi = 0.332*[#   2]+0.332*[#   3]+0.332*[#   5]+0.001*[#   1]+0.001*[#   4]
          
    |psi|^2 = 1.000
==== e(   3) =   -27.51051 eV ==== 
     psi = 0.333*[#   2]+0.333*[#   3]+0.333*[#   5]
    |psi|^2 = 1.000
==== e(   4) =   -27.50314 eV ==== 
     psi = 0.500*[#   1]+0.500*[#   4]
    |psi|^2 = 1.000
==== e(   5) =   -27.50225 eV ==== 
     psi = 0.498*[#   1]+0.498*[#   4]+0.001*[#   2]+0.001*[#   3]+0.001*[#   5]
          
    |psi|^2 = 1.000
==== e(   6) =    -7.09079 eV ==== 
     psi = 0.324*[#  11]+0.324*[#  12]+0.324*[#  14]+0.022*[#   6]+0.001*[#  15]
          
    |psi|^2 = 0.996
==== e(   7) =    -7.01529 eV ==== 
     psi = 0.316*[#  11]+0.316*[#  12]+0.316*[#  14]+0.022*[#  10]+0.022*[#  13]
          +0.002*[#   7]+0.002*[#   8]+0.002*[#   9]
    |psi|^2 = 1.002
==== e(   8) =    -7.01261 eV ==== 
     psi = 0.316*[#  11]+0.316*[#  12]+0.316*[#  14]+0.023*[#  10]+0.023*[#  13]
          +0.002*[#   7]+0.002*[#   8]+0.002*[#   9]
    |psi|^2 = 1.001
==== e(   9) =    -6.97125 eV ==== 
     psi = 0.476*[#  10]+0.476*[#  13]+0.015*[#  11]+0.015*[#  12]+0.015*[#  14]
          
    |psi|^2 = 1.000
==== e(  10) =    -6.96174 eV ==== 
     psi = 0.477*[#  10]+0.477*[#  13]+0.015*[#  11]+0.015*[#  12]+0.015*[#  14]
          
    |psi|^2 = 1.000
==== e(  11) =    -3.40375 eV ==== 
     psi = 0.562*[#   6]+0.162*[#  15]+0.019*[#  16]+0.019*[#  17]+0.019*[#  18]
          +0.008*[#  11]+0.008*[#  12]+0.008*[#  14]+0.003*[#   7]+0.003*[#   8]
          +0.003*[#   9]
    |psi|^2 = 0.813
==== e(  12) =     2.46217 eV ==== 
     psi = 0.328*[#  15]+0.116*[#   6]+0.067*[#   7]+0.067*[#   8]+0.067*[#   9]
          +0.029*[#  16]+0.029*[#  17]+0.029*[#  18]+0.001*[#  11]+0.001*[#  12]
          +0.001*[#  14]
    |psi|^2 = 0.737
==== e(  13) =     5.82433 eV ==== 
     psi = 0.199*[#   7]+0.199*[#   8]+0.199*[#   9]+0.094*[#  16]+0.094*[#  17]
          +0.094*[#  18]+0.077*[#  15]+0.036*[#   6]+0.001*[#  11]+0.001*[#  12]
          +0.001*[#  14]
    |psi|^2 = 0.995
==== e(  14) =     6.30259 eV ==== 
     psi = 0.232*[#   7]+0.232*[#   8]+0.232*[#   9]+0.099*[#  16]+0.099*[#  17]
          +0.099*[#  18]+0.001*[#  11]+0.001*[#  12]+0.001*[#  14]
    |psi|^2 = 0.996

 k =  -0.2175713173  0.2175713173  0.4351426346
==== e(   1) =   -27.51244 eV ==== 
     psi = 0.333*[#   2]+0.333*[#   3]+0.333*[#   5]
    |psi|^2 = 1.000
==== e(   2) =   -27.51127 eV ==== 
     psi = 0.333*[#   2]+0.333*[#   3]+0.333*[#   5]
    |psi|^2 = 1.000
==== e(   3) =   -27.51093 eV ==== 
     psi = 0.333*[#   2]+0.333*[#   3]+0.333*[#   5]
    |psi|^2 = 1.000
==== e(   4) =   -27.50335 eV ==== 
     psi = 0.499*[#   1]+0.499*[#   4]
    |psi|^2 = 1.000
==== e(   5) =   -27.50315 eV ==== 
     psi = 0.500*[#   1]+0.500*[#   4]
    |psi|^2 = 1.000
==== e(   6) =    -7.09848 eV ==== 
     psi = 0.323*[#  11]+0.323*[#  12]+0.323*[#  14]+0.024*[#   6]+0.001*[#  15]
          
    |psi|^2 = 0.997
==== e(   7) =    -7.01426 eV ==== 
     psi = 0.306*[#  11]+0.306*[#  12]+0.306*[#  14]+0.037*[#  10]+0.037*[#  13]
          +0.001*[#   7]+0.001*[#   8]+0.001*[#   9]
    |psi|^2 = 1.000
==== e(   8) =    -7.01110 eV ==== 
     psi = 0.308*[#  11]+0.308*[#  12]+0.308*[#  14]+0.035*[#  10]+0.035*[#  13]
          +0.002*[#   7]+0.002*[#   8]+0.002*[#   9]
    |psi|^2 = 1.001
==== e(   9) =    -6.96976 eV ==== 
     psi = 0.461*[#  10]+0.461*[#  13]+0.026*[#  11]+0.026*[#  12]+0.026*[#  14]
          
    |psi|^2 = 1.000
==== e(  10) =    -6.96194 eV ==== 
     psi = 0.465*[#  10]+0.465*[#  13]+0.023*[#  11]+0.023*[#  12]+0.023*[#  14]
          
    |psi|^2 = 1.000
==== e(  11) =    -3.06117 eV ==== 
     psi = 0.601*[#   6]+0.128*[#  15]+0.026*[#  16]+0.026*[#  17]+0.026*[#  18]
          +0.009*[#  11]+0.009*[#  12]+0.009*[#  14]+0.003*[#   7]+0.003*[#   8]
          +0.003*[#   9]
    |psi|^2 = 0.844
==== e(  12) =     1.76095 eV ==== 
     psi = 0.350*[#  15]+0.080*[#   7]+0.080*[#   8]+0.080*[#   9]+0.064*[#   6]
          +0.034*[#  16]+0.034*[#  17]+0.034*[#  18]
    |psi|^2 = 0.759
==== e(  13) =     5.50351 eV ==== 
     psi = 0.193*[#   7]+0.193*[#   8]+0.193*[#   9]+0.098*[#  16]+0.098*[#  17]
          +0.098*[#  18]+0.080*[#  15]+0.041*[#   6]+0.001*[#  11]+0.001*[#  12]
          +0.001*[#  14]
    |psi|^2 = 0.995
==== e(  14) =     6.27962 eV ==== 
     psi = 0.232*[#   7]+0.232*[#   8]+0.232*[#   9]+0.099*[#  16]+0.099*[#  17]
          +0.099*[#  18]+0.001*[#  11]+0.001*[#  12]+0.001*[#  14]
    |psi|^2 = 0.997

 k =   0.4351426346 -0.4351426346 -0.2175713173
==== e(   1) =   -27.51208 eV ==== 
     psi = 0.333*[#   2]+0.333*[#   3]+0.333*[#   5]
    |psi|^2 = 1.000
==== e(   2) =   -27.51033 eV ==== 
     psi = 0.333*[#   2]+0.333*[#   3]+0.333*[#   5]
    |psi|^2 = 1.000
==== e(   3) =   -27.50976 eV ==== 
     psi = 0.333*[#   2]+0.333*[#   3]+0.333*[#   5]
    |psi|^2 = 1.000
==== e(   4) =   -27.50295 eV ==== 
     psi = 0.499*[#   1]+0.499*[#   4]
    |psi|^2 = 1.000
==== e(   5) =   -27.50213 eV ==== 
     psi = 0.500*[#   1]+0.500*[#   4]
    |psi|^2 = 1.000
==== e(   6) =    -7.10103 eV ==== 
     psi = 0.322*[#  11]+0.322*[#  12]+0.322*[#  14]+0.026*[#   6]+0.001*[#  15]
          
    |psi|^2 = 0.997
==== e(   7) =    -7.01367 eV ==== 
     psi = 0.301*[#  11]+0.301*[#  12]+0.301*[#  14]+0.046*[#  10]+0.046*[#  13]
          
    |psi|^2 = 0.999
==== e(   8) =    -7.01071 eV ==== 
     psi = 0.306*[#  11]+0.306*[#  12]+0.306*[#  14]+0.039*[#  10]+0.039*[#  13]
          +0.002*[#   7]+0.002*[#   8]+0.002*[#   9]
    |psi|^2 = 1.001
==== e(   9) =    -6.96748 eV ==== 
     psi = 0.452*[#  10]+0.452*[#  13]+0.032*[#  11]+0.032*[#  12]+0.032*[#  14]
          
    |psi|^2 = 1.000
==== e(  10) =    -6.96288 eV ==== 
     psi = 0.461*[#  10]+0.461*[#  13]+0.026*[#  11]+0.026*[#  12]+0.026*[#  14]
          
    |psi|^2 = 1.000
==== e(  11) =    -2.88513 eV ==== 
     psi = 0.629*[#   6]+0.109*[#  15]+0.037*[#  16]+0.037*[#  17]+0.037*[#  18]
          +0.010*[#  11]+0.010*[#  12]+0.010*[#  14]+0.003*[#   7]+0.003*[#   8]
          +0.003*[#   9]
    |psi|^2 = 0.889
==== e(  12) =     1.44061 eV ==== 
     psi = 0.365*[#  15]+0.090*[#   7]+0.090*[#   8]+0.090*[#   9]+0.032*[#  16]
          +0.032*[#  17]+0.032*[#  18]+0.030*[#   6]
    |psi|^2 = 0.762
==== e(  13) =     5.29134 eV ==== 
     psi = 0.190*[#   7]+0.190*[#   8]+0.190*[#   9]+0.101*[#  16]+0.101*[#  17]
          +0.101*[#  18]+0.078*[#  15]+0.041*[#   6]
    |psi|^2 = 0.996
==== e(  14) =     6.36372 eV ==== 
     psi = 0.234*[#   7]+0.234*[#   8]+0.234*[#   9]+0.097*[#  16]+0.097*[#  17]
          +0.097*[#  18]+0.001*[#  11]+0.001*[#  12]+0.001*[#  14]
    |psi|^2 = 0.997

 k =   0.3807498053 -0.3807498053 -0.1631784880
==== e(   1) =   -27.51231 eV ==== 
     psi = 0.333*[#   2]+0.333*[#   3]+0.333*[#   5]
    |psi|^2 = 1.000
==== e(   2) =   -27.51088 eV ==== 
     psi = 0.333*[#   2]+0.333*[#   3]+0.333*[#   5]
    |psi|^2 = 1.000
==== e(   3) =   -27.51083 eV ==== 
     psi = 0.332*[#   2]+0.332*[#   3]+0.332*[#   5]+0.002*[#   1]+0.002*[#   4]
          
    |psi|^2 = 1.000
==== e(   4) =   -27.50329 eV ==== 
     psi = 0.500*[#   1]+0.500*[#   4]
    |psi|^2 = 1.000
==== e(   5) =   -27.50193 eV ==== 
     psi = 0.498*[#   1]+0.498*[#   4]+0.001*[#   2]+0.001*[#   3]+0.001*[#   5]
          
    |psi|^2 = 1.000
==== e(   6) =    -7.09864 eV ==== 
     psi = 0.323*[#  11]+0.323*[#  12]+0.323*[#  14]+0.025*[#   6]+0.001*[#  15]
          
    |psi|^2 = 0.998
==== e(   7) =    -7.01418 eV ==== 
     psi = 0.301*[#  11]+0.301*[#  12]+0.301*[#  14]+0.045*[#  10]+0.045*[#  13]
          
    |psi|^2 = 0.998
==== e(   8) =    -7.01226 eV ==== 
     psi = 0.311*[#  11]+0.311*[#  12]+0.311*[#  14]+0.031*[#  10]+0.031*[#  13]
          +0.002*[#   7]+0.002*[#   8]+0.002*[#   9]
    |psi|^2 = 1.001
==== e(   9) =    -6.96580 eV ==== 
     psi = 0.454*[#  10]+0.454*[#  13]+0.031*[#  11]+0.031*[#  12]+0.031*[#  14]
          
    |psi|^2 = 1.000
==== e(  10) =    -6.96500 eV ==== 
     psi = 0.468*[#  10]+0.468*[#  13]+0.021*[#  11]+0.021*[#  12]+0.021*[#  14]
          
    |psi|^2 = 1.000
==== e(  11) =    -2.98162 eV ==== 
     psi = 0.613*[#   6]+0.120*[#  15]+0.050*[#  16]+0.050*[#  17]+0.050*[#  18]
          +0.010*[#  11]+0.010*[#  12]+0.010*[#  14]+0.006*[#   7]+0.006*[#   8]
          +0.006*[#   9]
    |psi|^2 = 0.930
==== e(  12) =     1.61681 eV ==== 
     psi = 0.356*[#  15]+0.098*[#   7]+0.098*[#   8]+0.098*[#   9]+0.048*[#   6]
          +0.024*[#  16]+0.024*[#  17]+0.024*[#  18]
    |psi|^2 = 0.770
==== e(  13) =     5.20864 eV ==== 
     psi = 0.191*[#   7]+0.191*[#   8]+0.191*[#   9]+0.103*[#  16]+0.103*[#  17]
          +0.103*[#  18]+0.074*[#  15]+0.037*[#   6]
    |psi|^2 = 0.995
==== e(  14) =     6.54534 eV ==== 
     psi = 0.238*[#   7]+0.238*[#   8]+0.238*[#   9]+0.092*[#  16]+0.092*[#  17]
          +0.092*[#  18]+0.001*[#  11]+0.001*[#  12]+0.001*[#  14]
    |psi|^2 = 0.996

 k =   0.3263569759 -0.3263569759 -0.1087856586
==== e(   1) =   -27.51079 eV ==== 
     psi = 0.333*[#   2]+0.333*[#   3]+0.333*[#   5]
    |psi|^2 = 1.000
==== e(   2) =   -27.51019 eV ==== 
     psi = 0.333*[#   2]+0.333*[#   3]+0.333*[#   5]
    |psi|^2 = 1.000
==== e(   3) =   -27.50934 eV ==== 
     psi = 0.331*[#   2]+0.331*[#   3]+0.331*[#   5]+0.003*[#   1]+0.003*[#   4]
          
    |psi|^2 = 1.000
==== e(   4) =   -27.50271 eV ==== 
     psi = 0.497*[#   1]+0.497*[#   4]+0.002*[#   2]+0.002*[#   3]+0.002*[#   5]
          
    |psi|^2 = 1.000
==== e(   5) =   -27.50134 eV ==== 
     psi = 0.500*[#   1]+0.500*[#   4]
    |psi|^2 = 1.000
==== e(   6) =    -7.09077 eV ==== 
     psi = 0.323*[#  11]+0.323*[#  12]+0.323*[#  14]+0.023*[#   6]+0.001*[#  15]
          +0.001*[#  16]+0.001*[#  17]+0.001*[#  18]
    |psi|^2 = 0.998
==== e(   7) =    -7.01515 eV ==== 
     psi = 0.318*[#  11]+0.318*[#  12]+0.318*[#  14]+0.020*[#  10]+0.020*[#  13]
          +0.002*[#   7]+0.002*[#   8]+0.002*[#   9]
    |psi|^2 = 1.001
==== e(   8) =    -7.01498 eV ==== 
     psi = 0.308*[#  11]+0.308*[#  12]+0.308*[#  14]+0.035*[#  10]+0.035*[#  13]
          
    |psi|^2 = 0.997
==== e(   9) =    -6.96687 eV ==== 
     psi = 0.480*[#  10]+0.480*[#  13]+0.013*[#  11]+0.013*[#  12]+0.013*[#  14]
          
    |psi|^2 = 1.000
==== e(  10) =    -6.96468 eV ==== 
     psi = 0.464*[#  10]+0.464*[#  13]+0.024*[#  11]+0.024*[#  12]+0.024*[#  14]
          
    |psi|^2 = 1.000
==== e(  11) =    -3.28851 eV ==== 
     psi = 0.574*[#   6]+0.152*[#  15]+0.060*[#  16]+0.060*[#  17]+0.060*[#  18]
          +0.010*[#   7]+0.010*[#   8]+0.010*[#   9]+0.008*[#  11]+0.008*[#  12]
          +0.008*[#  14]
    |psi|^2 = 0.959
==== e(  12) =     2.21548 eV ==== 
     psi = 0.333*[#  15]+0.106*[#   7]+0.106*[#   8]+0.106*[#   9]+0.098*[#   6]
          +0.014*[#  16]+0.014*[#  17]+0.014*[#  18]+0.001*[#  11]+0.001*[#  12]
          +0.001*[#  14]
    |psi|^2 = 0.796
==== e(  13) =     5.27732 eV ==== 
     psi = 0.194*[#   7]+0.194*[#   8]+0.194*[#   9]+0.103*[#  16]+0.103*[#  17]
          +0.103*[#  18]+0.069*[#  15]+0.030*[#   6]+0.001*[#  11]+0.001*[#  12]
          +0.001*[#  14]
    |psi|^2 = 0.994
==== e(  14) =     6.80350 eV ==== 
     psi = 0.245*[#   7]+0.245*[#   8]+0.245*[#   9]+0.085*[#  16]+0.085*[#  17]
          +0.085*[#  18]+0.001*[#  11]+0.001*[#  12]+0.001*[#  14]
    |psi|^2 = 0.996

 k =   0.2719641466 -0.2719641466 -0.0543928293
==== e(   1) =   -27.50990 eV ==== 
     psi = 0.333*[#   2]+0.333*[#   3]+0.333*[#   5]
    |psi|^2 = 1.000
==== e(   2) =   -27.50986 eV ==== 
     psi = 0.333*[#   2]+0.333*[#   3]+0.333*[#   5]
    |psi|^2 = 1.000
==== e(   3) =   -27.50958 eV ==== 
     psi = 0.332*[#   2]+0.332*[#   3]+0.332*[#   5]
    |psi|^2 = 1.000
==== e(   4) =   -27.50239 eV ==== 
     psi = 0.498*[#   1]+0.498*[#   4]+0.001*[#   2]+0.001*[#   3]+0.001*[#   5]
          
    |psi|^2 = 1.000
==== e(   5) =   -27.50202 eV ==== 
     psi = 0.500*[#   1]+0.500*[#   4]
    |psi|^2 = 1.000
==== e(   6) =    -7.07999 eV ==== 
     psi = 0.324*[#  11]+0.324*[#  12]+0.324*[#  14]+0.019*[#   6]+0.002*[#  15]
          
    |psi|^2 = 0.999
==== e(   7) =    -7.01901 eV ==== 
     psi = 0.324*[#  11]+0.324*[#  12]+0.324*[#  14]+0.010*[#  10]+0.010*[#  13]
          +0.002*[#   7]+0.002*[#   8]+0.002*[#   9]
    |psi|^2 = 1.001
==== e(   8) =    -7.01705 eV ==== 
     psi = 0.317*[#  11]+0.317*[#  12]+0.317*[#  14]+0.021*[#  10]+0.021*[#  13]
          
    |psi|^2 = 0.997
==== e(   9) =    -6.96823 eV ==== 
     psi = 0.489*[#  10]+0.489*[#  13]+0.007*[#  11]+0.007*[#  12]+0.007*[#  14]
          
    |psi|^2 = 1.000
==== e(  10) =    -6.96438 eV ==== 
     psi = 0.478*[#  10]+0.478*[#  13]+0.015*[#  11]+0.015*[#  12]+0.015*[#  14]
          
    |psi|^2 = 1.000
==== e(  11) =    -3.66210 eV ==== 
     psi = 0.546*[#   6]+0.191*[#  15]+0.063*[#  16]+0.063*[#  17]+0.063*[#  18]
          +0.012*[#   7]+0.012*[#   8]+0.012*[#   9]+0.007*[#  11]+0.007*[#  12]
          +0.007*[#  14]
    |psi|^2 = 0.979
==== e(  12) =     3.04929 eV ==== 
     psi = 0.312*[#  15]+0.144*[#   6]+0.119*[#   7]+0.119*[#   8]+0.119*[#   9]
          +0.007*[#  16]+0.007*[#  17]+0.007*[#  18]+0.002*[#  11]+0.002*[#  12]
          +0.002*[#  14]
    |psi|^2 = 0.840
==== e(  13) =     5.53226 eV ==== 
     psi = 0.201*[#   7]+0.201*[#   8]+0.201*[#   9]+0.102*[#  16]+0.102*[#  17]
          +0.102*[#  18]+0.062*[#  15]+0.020*[#   6]+0.001*[#  11]+0.001*[#  12]
          +0.001*[#  14]
    |psi|^2 = 0.993
==== e(  14) =     7.10016 eV ==== 
     psi = 0.254*[#   7]+0.254*[#   8]+0.254*[#   9]+0.076*[#  16]+0.076*[#  17]
          +0.076*[#  18]+0.002*[#  11]+0.002*[#  12]+0.002*[#  14]
    |psi|^2 = 0.996

 k =   0.2175713173 -0.2175713173  0.0000000000
==== e(   1) =   -27.51179 eV ==== 
     psi = 0.333*[#   2]+0.333*[#   3]+0.333*[#   5]
    |psi|^2 = 1.000
==== e(   2) =   -27.51080 eV ==== 
     psi = 0.333*[#   2]+0.333*[#   3]+0.333*[#   5]
    |psi|^2 = 1.000
==== e(   3) =   -27.50976 eV ==== 
     psi = 0.331*[#   2]+0.331*[#   3]+0.331*[#   5]+0.003*[#   1]+0.003*[#   4]
          
    |psi|^2 = 0.999
==== e(   4) =   -27.50371 eV ==== 
     psi = 0.500*[#   1]+0.500*[#   4]
    |psi|^2 = 1.000
==== e(   5) =   -27.50305 eV ==== 
     psi = 0.497*[#   1]+0.497*[#   4]+0.002*[#   2]+0.002*[#   3]+0.002*[#   5]
          
    |psi|^2 = 1.000
==== e(   6) =    -7.06798 eV ==== 
     psi = 0.326*[#  11]+0.326*[#  12]+0.326*[#  14]+0.015*[#   6]+0.002*[#  15]
          +0.001*[#   7]+0.001*[#   8]+0.001*[#   9]
    |psi|^2 = 0.999
==== e(   7) =    -7.02367 eV ==== 
     psi = 0.327*[#  11]+0.327*[#  12]+0.327*[#  14]+0.006*[#  10]+0.006*[#  13]
          +0.002*[#   7]+0.002*[#   8]+0.002*[#   9]
    |psi|^2 = 1.000
==== e(   8) =    -7.02035 eV ==== 
     psi = 0.325*[#  11]+0.325*[#  12]+0.325*[#  14]+0.010*[#  10]+0.010*[#  13]
          
    |psi|^2 = 0.996
==== e(   9) =    -6.96875 eV ==== 
     psi = 0.494*[#  10]+0.494*[#  13]+0.004*[#  11]+0.004*[#  12]+0.004*[#  14]
          
    |psi|^2 = 1.000
==== e(  10) =    -6.96486 eV ==== 
     psi = 0.489*[#  10]+0.489*[#  13]+0.007*[#  11]+0.007*[#  12]+0.007*[#  14]
          
    |psi|^2 = 1.000
==== e(  11) =    -4.00186 eV ==== 
     psi = 0.538*[#   6]+0.233*[#  15]+0.057*[#  16]+0.057*[#  17]+0.057*[#  18]
          +0.011*[#   7]+0.011*[#   8]+0.011*[#   9]+0.005*[#  11]+0.005*[#  12]
          +0.005*[#  14]
    |psi|^2 = 0.991
==== e(  12) =     3.92400 eV ==== 
     psi = 0.294*[#  15]+0.173*[#   6]+0.132*[#   7]+0.132*[#   8]+0.132*[#   9]
          +0.006*[#  16]+0.006*[#  17]+0.006*[#  18]+0.002*[#  11]+0.002*[#  12]
          +0.002*[#  14]
    |psi|^2 = 0.885
==== e(  13) =     6.03176 eV ==== 
     psi = 0.212*[#   7]+0.212*[#   8]+0.212*[#   9]+0.096*[#  16]+0.096*[#  17]
          +0.096*[#  18]+0.050*[#  15]+0.012*[#   6]+0.002*[#  11]+0.002*[#  12]
          +0.002*[#  14]
    |psi|^2 = 0.992
==== e(  14) =     7.37050 eV ==== 
     psi = 0.265*[#   7]+0.265*[#   8]+0.265*[#   9]+0.065*[#  16]+0.065*[#  17]
          +0.065*[#  18]+0.002*[#  11]+0.002*[#  12]+0.002*[#  14]
    |psi|^2 = 0.995

 k =   0.0000000000  0.0000000000  0.3263569759
==== e(   1) =   -27.51152 eV ==== 
     psi = 0.333*[#   2]+0.333*[#   3]+0.333*[#   5]
    |psi|^2 = 1.000
==== e(   2) =   -27.51074 eV ==== 
     psi = 0.333*[#   2]+0.333*[#   3]+0.333*[#   5]
    |psi|^2 = 1.000
==== e(   3) =   -27.51074 eV ==== 
     psi = 0.333*[#   2]+0.333*[#   3]+0.333*[#   5]
    |psi|^2 = 1.000
==== e(   4) =   -27.50356 eV ==== 
     psi = 0.500*[#   1]+0.500*[#   4]
    |psi|^2 = 1.000
==== e(   5) =   -27.50306 eV ==== 
     psi = 0.500*[#   1]+0.500*[#   4]
    |psi|^2 = 1.000
==== e(   6) =    -7.07871 eV ==== 
     psi = 0.325*[#  11]+0.325*[#  12]+0.325*[#  14]+0.016*[#   6]+0.001*[#  15]
          
    |psi|^2 = 0.994
==== e(   7) =    -7.01537 eV ==== 
     psi = 0.331*[#  11]+0.331*[#  12]+0.331*[#  14]+0.003*[#   7]+0.003*[#   8]
          +0.003*[#   9]
    |psi|^2 = 1.006
==== e(   8) =    -7.01537 eV ==== 
     psi = 0.331*[#  11]+0.331*[#  12]+0.331*[#  14]+0.002*[#   7]+0.002*[#   8]
          +0.002*[#   9]
    |psi|^2 = 1.000
==== e(   9) =    -6.97441 eV ==== 
     psi = 0.498*[#  10]+0.498*[#  13]
    |psi|^2 = 1.000
==== e(  10) =    -6.96179 eV ==== 
     psi = 0.500*[#  10]+0.500*[#  13]
    |psi|^2 = 1.000
==== e(  11) =    -3.91406 eV ==== 
     psi = 0.534*[#   6]+0.216*[#  15]+0.005*[#  11]+0.005*[#  12]+0.005*[#  14]
          
    |psi|^2 = 0.765
==== e(  12) =     3.93318 eV ==== 
     psi = 0.342*[#  15]+0.197*[#   6]+0.002*[#  11]+0.002*[#  12]+0.002*[#  14]
          
    |psi|^2 = 0.547
==== e(  13) =     6.34564 eV ==== 
     psi = 0.232*[#   7]+0.232*[#   8]+0.232*[#   9]+0.099*[#  16]+0.099*[#  17]
          +0.099*[#  18]+0.002*[#  11]+0.002*[#  12]+0.002*[#  14]
    |psi|^2 = 0.996
==== e(  14) =     6.34564 eV ==== 
     psi = 0.232*[#   7]+0.232*[#   8]+0.232*[#   9]+0.099*[#  16]+0.099*[#  17]
          +0.099*[#  18]+0.002*[#  11]+0.002*[#  12]+0.002*[#  14]
    |psi|^2 = 0.996

 k =  -0.0543928293  0.0543928293  0.3807498053
==== e(   1) =   -27.51109 eV ==== 
     psi = 0.333*[#   2]+0.333*[#   3]+0.333*[#   5]
    |psi|^2 = 1.000
==== e(   2) =   -27.51007 eV ==== 
     psi = 0.331*[#   2]+0.331*[#   3]+0.331*[#   5]+0.003*[#   1]+0.003*[#   4]
          
    |psi|^2 = 1.000
==== e(   3) =   -27.50989 eV ==== 
     psi = 0.332*[#   2]+0.332*[#   3]+0.332*[#   5]+0.001*[#   1]+0.001*[#   4]
          
    |psi|^2 = 1.000
==== e(   4) =   -27.50217 eV ==== 
     psi = 0.499*[#   1]+0.499*[#   4]
    |psi|^2 = 1.000
==== e(   5) =   -27.50187 eV ==== 
     psi = 0.496*[#   1]+0.496*[#   4]+0.003*[#   2]+0.003*[#   3]+0.003*[#   5]
          
    |psi|^2 = 1.000
==== e(   6) =    -7.08936 eV ==== 
     psi = 0.324*[#  11]+0.324*[#  12]+0.324*[#  14]+0.019*[#   6]+0.001*[#  15]
          
    |psi|^2 = 0.995
==== e(   7) =    -7.01120 eV ==== 
     psi = 0.329*[#  11]+0.329*[#  12]+0.329*[#  14]+0.003*[#  10]+0.003*[#  13]
          +0.002*[#   7]+0.002*[#   8]+0.002*[#   9]
    |psi|^2 = 1.005
==== e(   8) =    -7.01054 eV ==== 
     psi = 0.329*[#  11]+0.329*[#  12]+0.329*[#  14]+0.003*[#  10]+0.003*[#  13]
          +0.002*[#   7]+0.002*[#   8]+0.002*[#   9]
    |psi|^2 = 1.000
==== e(   9) =    -6.97583 eV ==== 
     psi = 0.495*[#  10]+0.495*[#  13]+0.003*[#  11]+0.003*[#  12]+0.003*[#  14]
          
    |psi|^2 = 1.000
==== e(  10) =    -6.96047 eV ==== 
     psi = 0.497*[#  10]+0.497*[#  13]+0.002*[#  11]+0.002*[#  12]+0.002*[#  14]
          
    |psi|^2 = 1.000
==== e(  11) =    -3.63642 eV ==== 
     psi = 0.541*[#   6]+0.180*[#  15]+0.006*[#  11]+0.006*[#  12]+0.006*[#  14]
          +0.003*[#  16]+0.003*[#  17]+0.003*[#  18]
    |psi|^2 = 0.749
==== e(  12) =     3.24890 eV ==== 
     psi = 0.355*[#  15]+0.174*[#   6]+0.011*[#   7]+0.011*[#   8]+0.011*[#   9]
          +0.005*[#  16]+0.005*[#  17]+0.005*[#  18]+0.002*[#  11]+0.002*[#  12]
          +0.002*[#  14]
    |psi|^2 = 0.585
==== e(  13) =     5.97145 eV ==== 
     psi = 0.218*[#   7]+0.218*[#   8]+0.218*[#   9]+0.103*[#  16]+0.103*[#  17]
          +0.103*[#  18]+0.019*[#  15]+0.006*[#   6]+0.001*[#  11]+0.001*[#  12]
          +0.001*[#  14]
    |psi|^2 = 0.996
==== e(  14) =     6.10368 eV ==== 
     psi = 0.227*[#   7]+0.227*[#   8]+0.227*[#   9]+0.104*[#  16]+0.104*[#  17]
          +0.104*[#  18]+0.001*[#  11]+0.001*[#  12]+0.001*[#  14]
    |psi|^2 = 0.997

 k =  -0.1087856586  0.1087856586  0.4351426346
==== e(   1) =   -27.51168 eV ==== 
     psi = 0.333*[#   2]+0.333*[#   3]+0.333*[#   5]
    |psi|^2 = 1.000
==== e(   2) =   -27.51067 eV ==== 
     psi = 0.333*[#   2]+0.333*[#   3]+0.333*[#   5]
    |psi|^2 = 1.000
==== e(   3) =   -27.50974 eV ==== 
     psi = 0.333*[#   2]+0.333*[#   3]+0.333*[#   5]
    |psi|^2 = 1.000
==== e(   4) =   -27.50344 eV ==== 
     psi = 0.500*[#   1]+0.500*[#   4]
    |psi|^2 = 1.000
==== e(   5) =   -27.50254 eV ==== 
     psi = 0.499*[#   1]+0.499*[#   4]
    |psi|^2 = 1.000
==== e(   6) =    -7.09843 eV ==== 
     psi = 0.324*[#  11]+0.324*[#  12]+0.324*[#  14]+0.022*[#   6]+0.001*[#  15]
          
    |psi|^2 = 0.995
==== e(   7) =    -7.00934 eV ==== 
     psi = 0.322*[#  11]+0.322*[#  12]+0.322*[#  14]+0.015*[#  10]+0.015*[#  13]
          +0.002*[#   7]+0.002*[#   8]+0.002*[#   9]+0.001*[#  16]+0.001*[#  17]
          +0.001*[#  18]
    |psi|^2 = 1.003
==== e(   8) =    -7.00697 eV ==== 
     psi = 0.324*[#  11]+0.324*[#  12]+0.324*[#  14]+0.012*[#  10]+0.012*[#  13]
          +0.002*[#   7]+0.002*[#   8]+0.002*[#   9]
    |psi|^2 = 1.000
==== e(   9) =    -6.97630 eV ==== 
     psi = 0.483*[#  10]+0.483*[#  13]+0.010*[#  11]+0.010*[#  12]+0.010*[#  14]
          
    |psi|^2 = 1.000
==== e(  10) =    -6.96026 eV ==== 
     psi = 0.488*[#  10]+0.488*[#  13]+0.008*[#  11]+0.008*[#  12]+0.008*[#  14]
          
    |psi|^2 = 1.000
==== e(  11) =    -3.29344 eV ==== 
     psi = 0.564*[#   6]+0.142*[#  15]+0.009*[#  16]+0.009*[#  17]+0.009*[#  18]
          +0.008*[#  11]+0.008*[#  12]+0.008*[#  14]+0.001*[#   7]+0.001*[#   8]
          +0.001*[#   9]
    |psi|^2 = 0.759
==== e(  12) =     2.50845 eV ==== 
     psi = 0.372*[#  15]+0.134*[#   6]+0.031*[#   7]+0.031*[#   8]+0.031*[#   9]
          +0.014*[#  16]+0.014*[#  17]+0.014*[#  18]+0.002*[#  11]+0.002*[#  12]
          +0.002*[#  14]
    |psi|^2 = 0.646
==== e(  13) =     5.47047 eV ==== 
     psi = 0.203*[#   7]+0.203*[#   8]+0.203*[#   9]+0.108*[#  16]+0.108*[#  17]
          +0.108*[#  18]+0.043*[#  15]+0.016*[#   6]+0.001*[#  11]+0.001*[#  12]
          +0.001*[#  14]
    |psi|^2 = 0.995
==== e(  14) =     5.96130 eV ==== 
     psi = 0.225*[#   7]+0.225*[#   8]+0.225*[#   9]+0.106*[#  16]+0.106*[#  17]
          +0.106*[#  18]+0.001*[#  11]+0.001*[#  12]+0.001*[#  14]
    |psi|^2 = 0.997

 k =  -0.1631784880  0.1631784880  0.4895354639
==== e(   1) =   -27.51148 eV ==== 
     psi = 0.333*[#   2]+0.333*[#   3]+0.333*[#   5]
    |psi|^2 = 1.000
==== e(   2) =   -27.51084 eV ==== 
     psi = 0.328*[#   2]+0.328*[#   3]+0.328*[#   5]+0.007*[#   1]+0.007*[#   4]
          
    |psi|^2 = 1.000
==== e(   3) =   -27.50968 eV ==== 
     psi = 0.332*[#   2]+0.332*[#   3]+0.332*[#   5]+0.002*[#   1]+0.002*[#   4]
          
    |psi|^2 = 1.000
==== e(   4) =   -27.50354 eV ==== 
     psi = 0.498*[#   1]+0.498*[#   4]+0.001*[#   2]+0.001*[#   3]+0.001*[#   5]
          
    |psi|^2 = 1.000
==== e(   5) =   -27.50305 eV ==== 
     psi = 0.492*[#   1]+0.492*[#   4]+0.005*[#   2]+0.005*[#   3]+0.005*[#   5]
          
    |psi|^2 = 1.000
==== e(   6) =    -7.10417 eV ==== 
     psi = 0.323*[#  11]+0.323*[#  12]+0.323*[#  14]+0.025*[#   6]
    |psi|^2 = 0.996
==== e(   7) =    -7.00908 eV ==== 
     psi = 0.310*[#  11]+0.310*[#  12]+0.310*[#  14]+0.032*[#  10]+0.032*[#  13]
          +0.001*[#   7]+0.001*[#   8]+0.001*[#   9]+0.001*[#  16]+0.001*[#  17]
          +0.001*[#  18]
    |psi|^2 = 1.002
==== e(   8) =    -7.00507 eV ==== 
     psi = 0.318*[#  11]+0.318*[#  12]+0.318*[#  14]+0.021*[#  10]+0.021*[#  13]
          +0.001*[#   7]+0.001*[#   8]+0.001*[#   9]
    |psi|^2 = 1.001
==== e(   9) =    -6.97496 eV ==== 
     psi = 0.466*[#  10]+0.466*[#  13]+0.022*[#  11]+0.022*[#  12]+0.022*[#  14]
          
    |psi|^2 = 1.000
==== e(  10) =    -6.96065 eV ==== 
     psi = 0.479*[#  10]+0.479*[#  13]+0.014*[#  11]+0.014*[#  12]+0.014*[#  14]
          
    |psi|^2 = 1.000
==== e(  11) =    -2.95209 eV ==== 
     psi = 0.603*[#   6]+0.105*[#  15]+0.017*[#  16]+0.017*[#  17]+0.017*[#  18]
          +0.009*[#  11]+0.009*[#  12]+0.009*[#  14]+0.001*[#   7]+0.001*[#   8]
          +0.001*[#   9]
    |psi|^2 = 0.789
==== e(  12) =     1.87252 eV ==== 
     psi = 0.400*[#  15]+0.081*[#   6]+0.050*[#   7]+0.050*[#   8]+0.050*[#   9]
          +0.021*[#  16]+0.021*[#  17]+0.021*[#  18]
    |psi|^2 = 0.696
==== e(  13) =     4.99828 eV ==== 
     psi = 0.194*[#   7]+0.194*[#   8]+0.194*[#   9]+0.112*[#  16]+0.112*[#  17]
          +0.112*[#  18]+0.052*[#  15]+0.022*[#   6]
    |psi|^2 = 0.995
==== e(  14) =     5.93217 eV ==== 
     psi = 0.225*[#   7]+0.225*[#   8]+0.225*[#   9]+0.106*[#  16]+0.106*[#  17]
          +0.106*[#  18]+0.001*[#  11]+0.001*[#  12]+0.001*[#  14]
    |psi|^2 = 0.997

 k =   0.4895354639 -0.4895354639 -0.1631784880
==== e(   1) =   -27.51180 eV ==== 
     psi = 0.333*[#   2]+0.333*[#   3]+0.333*[#   5]
    |psi|^2 = 1.000
==== e(   2) =   -27.51097 eV ==== 
     psi = 0.333*[#   2]+0.333*[#   3]+0.333*[#   5]
    |psi|^2 = 1.000
==== e(   3) =   -27.51016 eV ==== 
     psi = 0.333*[#   2]+0.333*[#   3]+0.333*[#   5]
    |psi|^2 = 1.000
==== e(   4) =   -27.50329 eV ==== 
     psi = 0.499*[#   1]+0.499*[#   4]
    |psi|^2 = 1.000
==== e(   5) =   -27.50284 eV ==== 
     psi = 0.500*[#   1]+0.500*[#   4]
    |psi|^2 = 1.000
==== e(   6) =    -7.10636 eV ==== 
     psi = 0.322*[#  11]+0.322*[#  12]+0.322*[#  14]+0.026*[#   6]
    |psi|^2 = 0.997
==== e(   7) =    -7.00977 eV ==== 
     psi = 0.303*[#  11]+0.303*[#  12]+0.303*[#  14]+0.044*[#  10]+0.044*[#  13]
          
    |psi|^2 = 1.000
==== e(   8) =    -7.00504 eV ==== 
     psi = 0.315*[#  11]+0.315*[#  12]+0.315*[#  14]+0.025*[#  10]+0.025*[#  13]
          +0.001*[#   7]+0.001*[#   8]+0.001*[#   9]
    |psi|^2 = 1.001
==== e(   9) =    -6.97243 eV ==== 
     psi = 0.455*[#  10]+0.455*[#  13]+0.030*[#  11]+0.030*[#  12]+0.030*[#  14]
          
    |psi|^2 = 1.000
==== e(  10) =    -6.96199 eV ==== 
     psi = 0.474*[#  10]+0.474*[#  13]+0.017*[#  11]+0.017*[#  12]+0.017*[#  14]
          
    |psi|^2 = 1.000
==== e(  11) =    -2.72853 eV ==== 
     psi = 0.639*[#   6]+0.078*[#  15]+0.028*[#  16]+0.028*[#  17]+0.028*[#  18]
          +0.010*[#  11]+0.010*[#  12]+0.010*[#  14]+0.002*[#   7]+0.002*[#   8]
          +0.002*[#   9]
    |psi|^2 = 0.838
==== e(  12) =     1.50260 eV ==== 
     psi = 0.423*[#  15]+0.067*[#   7]+0.067*[#   8]+0.067*[#   9]+0.037*[#   6]
          +0.021*[#  16]+0.021*[#  17]+0.021*[#  18]
    |psi|^2 = 0.725
==== e(  13) =     4.64930 eV ==== 
     psi = 0.189*[#   7]+0.189*[#   8]+0.189*[#   9]+0.116*[#  16]+0.116*[#  17]
          +0.116*[#  18]+0.051*[#  15]+0.024*[#   6]
    |psi|^2 = 0.995
==== e(  14) =     6.01804 eV ==== 
     psi = 0.226*[#   7]+0.226*[#   8]+0.226*[#   9]+0.105*[#  16]+0.105*[#  17]
          +0.105*[#  18]
    |psi|^2 = 0.997

 k =   0.4351426346 -0.4351426346 -0.1087856586
==== e(   1) =   -27.51205 eV ==== 
     psi = 0.333*[#   2]+0.333*[#   3]+0.333*[#   5]
    |psi|^2 = 1.000
==== e(   2) =   -27.51115 eV ==== 
     psi = 0.331*[#   2]+0.331*[#   3]+0.331*[#   5]+0.003*[#   1]+0.003*[#   4]
          
    |psi|^2 = 1.000
==== e(   3) =   -27.51076 eV ==== 
     psi = 0.331*[#   2]+0.331*[#   3]+0.331*[#   5]+0.003*[#   1]+0.003*[#   4]
          
    |psi|^2 = 1.000
[...]
          +0.001*[#  18]
    |psi|^2 = 1.003
==== e(   8) =    -7.00405 eV ==== 
     psi = 0.310*[#  11]+0.310*[#  12]+0.310*[#  14]+0.033*[#  10]+0.033*[#  13]
          +0.001*[#   7]+0.001*[#   8]+0.001*[#   9]
    |psi|^2 = 1.000
==== e(   9) =    -6.97345 eV ==== 
     psi = 0.462*[#  10]+0.462*[#  13]+0.025*[#  11]+0.025*[#  12]+0.025*[#  14]
          
    |psi|^2 = 1.000
==== e(  10) =    -6.96235 eV ==== 
     psi = 0.482*[#  10]+0.482*[#  13]+0.012*[#  11]+0.012*[#  12]+0.012*[#  14]
          
    |psi|^2 = 1.000
==== e(  11) =    -2.85773 eV ==== 
     psi = 0.613*[#   6]+0.092*[#  15]+0.026*[#  16]+0.026*[#  17]+0.026*[#  18]
          +0.009*[#  11]+0.009*[#  12]+0.009*[#  14]+0.002*[#   7]+0.002*[#   8]
          +0.002*[#   9]
    |psi|^2 = 0.816
==== e(  12) =     1.83303 eV ==== 
     psi = 0.427*[#  15]+0.076*[#   6]+0.058*[#   7]+0.058*[#   8]+0.058*[#   9]
          +0.019*[#  16]+0.019*[#  17]+0.019*[#  18]
    |psi|^2 = 0.736
==== e(  13) =     4.59982 eV ==== 
     psi = 0.193*[#   7]+0.193*[#   8]+0.193*[#   9]+0.120*[#  16]+0.120*[#  17]
          +0.120*[#  18]+0.038*[#  15]+0.014*[#   6]
    |psi|^2 = 0.994
==== e(  14) =     5.82208 eV ==== 
     psi = 0.216*[#   7]+0.216*[#   8]+0.216*[#   9]+0.112*[#  16]+0.112*[#  17]
          +0.112*[#  18]+0.006*[#  15]+0.002*[#   6]
    |psi|^2 = 0.996

 k =   0.5983211225 -0.3807498053 -0.1631784880
==== e(   1) =   -27.51163 eV ==== 
     psi = 0.333*[#   2]+0.333*[#   3]+0.333*[#   5]
    |psi|^2 = 1.000
==== e(   2) =   -27.51089 eV ==== 
     psi = 0.332*[#   2]+0.332*[#   3]+0.332*[#   5]+0.002*[#   1]+0.002*[#   4]
          
    |psi|^2 = 1.000
==== e(   3) =   -27.51060 eV ==== 
     psi = 0.332*[#   2]+0.332*[#   3]+0.332*[#   5]+0.001*[#   1]+0.001*[#   4]
          
    |psi|^2 = 1.000
==== e(   4) =   -27.50310 eV ==== 
     psi = 0.497*[#   1]+0.497*[#   4]+0.002*[#   2]+0.002*[#   3]+0.002*[#   5]
          
    |psi|^2 = 1.000
==== e(   5) =   -27.50208 eV ==== 
     psi = 0.499*[#   1]+0.499*[#   4]
    |psi|^2 = 1.000
==== e(   6) =    -7.10734 eV ==== 
     psi = 0.322*[#  11]+0.322*[#  12]+0.322*[#  14]+0.026*[#   6]
    |psi|^2 = 0.997
==== e(   7) =    -7.01045 eV ==== 
     psi = 0.315*[#  11]+0.315*[#  12]+0.315*[#  14]+0.026*[#  10]+0.026*[#  13]
          
    |psi|^2 = 1.002
==== e(   8) =    -7.00231 eV ==== 
     psi = 0.305*[#  11]+0.305*[#  12]+0.305*[#  14]+0.040*[#  10]+0.040*[#  13]
          
    |psi|^2 = 1.001
==== e(   9) =    -6.97219 eV ==== 
     psi = 0.449*[#  10]+0.449*[#  13]+0.033*[#  11]+0.033*[#  12]+0.033*[#  14]
          
    |psi|^2 = 1.000
==== e(  10) =    -6.96321 eV ==== 
     psi = 0.483*[#  10]+0.483*[#  13]+0.011*[#  11]+0.011*[#  12]+0.011*[#  14]
          
    |psi|^2 = 1.000
==== e(  11) =    -2.63851 eV ==== 
     psi = 0.649*[#   6]+0.061*[#  15]+0.037*[#  16]+0.037*[#  17]+0.037*[#  18]
          +0.010*[#  11]+0.010*[#  12]+0.010*[#  14]+0.002*[#   7]+0.002*[#   8]
          +0.002*[#   9]
    |psi|^2 = 0.859
==== e(  12) =     1.50353 eV ==== 
     psi = 0.457*[#  15]+0.075*[#   7]+0.075*[#   8]+0.075*[#   9]+0.034*[#   6]
          +0.017*[#  16]+0.017*[#  17]+0.017*[#  18]
    |psi|^2 = 0.768
==== e(  13) =     4.43240 eV ==== 
     psi = 0.191*[#   7]+0.191*[#   8]+0.191*[#   9]+0.122*[#  16]+0.122*[#  17]
          +0.122*[#  18]+0.038*[#  15]+0.017*[#   6]
    |psi|^2 = 0.995
==== e(  14) =     5.66114 eV ==== 
     psi = 0.213*[#   7]+0.213*[#   8]+0.213*[#   9]+0.116*[#  16]+0.116*[#  17]
          +0.116*[#  18]+0.004*[#  15]
    |psi|^2 = 0.996

 k =   0.7071067812 -0.4895354639 -0.1631784880
==== e(   1) =   -27.51065 eV ==== 
     psi = 0.330*[#   2]+0.330*[#   3]+0.330*[#   5]+0.005*[#   1]+0.005*[#   4]
          
    |psi|^2 = 1.000
==== e(   2) =   -27.51028 eV ==== 
     psi = 0.333*[#   2]+0.333*[#   3]+0.333*[#   5]
    |psi|^2 = 1.000
==== e(   3) =   -27.51006 eV ==== 
     psi = 0.333*[#   2]+0.333*[#   3]+0.333*[#   5]
    |psi|^2 = 1.000
==== e(   4) =   -27.50288 eV ==== 
     psi = 0.499*[#   1]+0.499*[#   4]
    |psi|^2 = 1.000
==== e(   5) =   -27.50206 eV ==== 
     psi = 0.495*[#   1]+0.495*[#   4]+0.003*[#   2]+0.003*[#   3]+0.003*[#   5]
          
    |psi|^2 = 1.000
==== e(   6) =    -7.11006 eV ==== 
     psi = 0.323*[#  11]+0.323*[#  12]+0.323*[#  14]+0.026*[#   6]
    |psi|^2 = 0.996
==== e(   7) =    -7.00596 eV ==== 
     psi = 0.325*[#  11]+0.325*[#  12]+0.325*[#  14]+0.010*[#  10]+0.010*[#  13]
          +0.001*[#   7]+0.001*[#   8]+0.001*[#   9]+0.001*[#  16]+0.001*[#  17]
          +0.001*[#  18]
    |psi|^2 = 1.003
==== e(   8) =    -6.99959 eV ==== 
     psi = 0.303*[#  11]+0.303*[#  12]+0.303*[#  14]+0.043*[#  10]+0.043*[#  13]
          
    |psi|^2 = 1.000
==== e(   9) =    -6.97723 eV ==== 
     psi = 0.455*[#  10]+0.455*[#  13]+0.029*[#  11]+0.029*[#  12]+0.029*[#  14]
          
    |psi|^2 = 1.000
==== e(  10) =    -6.96041 eV ==== 
     psi = 0.489*[#  10]+0.489*[#  13]+0.007*[#  11]+0.007*[#  12]+0.007*[#  14]
          
    |psi|^2 = 1.000
==== e(  11) =    -2.71986 eV ==== 
     psi = 0.629*[#   6]+0.068*[#  15]+0.017*[#  16]+0.017*[#  17]+0.017*[#  18]
          +0.010*[#  11]+0.010*[#  12]+0.010*[#  14]
    |psi|^2 = 0.778
==== e(  12) =     1.70420 eV ==== 
     psi = 0.463*[#  15]+0.068*[#   6]+0.033*[#   7]+0.033*[#   8]+0.033*[#   9]
          +0.009*[#  16]+0.009*[#  17]+0.009*[#  18]
    |psi|^2 = 0.660
==== e(  13) =     4.70243 eV ==== 
     psi = 0.198*[#   7]+0.198*[#   8]+0.198*[#   9]+0.122*[#  16]+0.122*[#  17]
          +0.122*[#  18]+0.024*[#  15]+0.007*[#   6]
    |psi|^2 = 0.995
==== e(  14) =     5.39720 eV ==== 
     psi = 0.208*[#   7]+0.208*[#   8]+0.208*[#   9]+0.122*[#  16]+0.122*[#  17]
          +0.122*[#  18]+0.003*[#  15]
    |psi|^2 = 0.996

 k =   0.6527139519 -0.4351426346 -0.1087856586
==== e(   1) =   -27.51148 eV ==== 
     psi = 0.331*[#   2]+0.331*[#   3]+0.331*[#   5]+0.004*[#   1]+0.004*[#   4]
          
    |psi|^2 = 1.000
==== e(   2) =   -27.51076 eV ==== 
     psi = 0.332*[#   2]+0.332*[#   3]+0.332*[#   5]+0.002*[#   1]+0.002*[#   4]
          
    |psi|^2 = 1.000
==== e(   3) =   -27.51028 eV ==== 
     psi = 0.332*[#   2]+0.332*[#   3]+0.332*[#   5]+0.002*[#   1]+0.002*[#   4]
          
    |psi|^2 = 1.000
==== e(   4) =   -27.50325 eV ==== 
     psi = 0.495*[#   1]+0.495*[#   4]+0.003*[#   2]+0.003*[#   3]+0.003*[#   5]
          
    |psi|^2 = 1.000
==== e(   5) =   -27.50302 eV ==== 
     psi = 0.497*[#   1]+0.497*[#   4]+0.002*[#   2]+0.002*[#   3]+0.002*[#   5]
          
    |psi|^2 = 1.000
==== e(   6) =    -7.11197 eV ==== 
     psi = 0.322*[#  11]+0.322*[#  12]+0.322*[#  14]+0.027*[#   6]
    |psi|^2 = 0.996
==== e(   7) =    -7.00697 eV ==== 
     psi = 0.324*[#  11]+0.324*[#  12]+0.324*[#  14]+0.012*[#  10]+0.012*[#  13]
          +0.001*[#  16]+0.001*[#  17]+0.001*[#  18]
    |psi|^2 = 1.003
==== e(   8) =    -6.99818 eV ==== 
     psi = 0.294*[#  11]+0.294*[#  12]+0.294*[#  14]+0.056*[#  10]+0.056*[#  13]
          
    |psi|^2 = 1.001
==== e(   9) =    -6.97593 eV ==== 
     psi = 0.438*[#  10]+0.438*[#  13]+0.041*[#  11]+0.041*[#  12]+0.041*[#  14]
          
    |psi|^2 = 1.000
==== e(  10) =    -6.96196 eV ==== 
     psi = 0.491*[#  10]+0.491*[#  13]+0.006*[#  11]+0.006*[#  12]+0.006*[#  14]
          
    |psi|^2 = 1.000
==== e(  11) =    -2.50105 eV ==== 
     psi = 0.666*[#   6]+0.033*[#  15]+0.027*[#  16]+0.027*[#  17]+0.027*[#  18]
          +0.011*[#  11]+0.011*[#  12]+0.011*[#  14]
    |psi|^2 = 0.815
==== e(  12) =     1.44145 eV ==== 
     psi = 0.508*[#  15]+0.048*[#   7]+0.048*[#   8]+0.048*[#   9]+0.028*[#   6]
          +0.007*[#  16]+0.007*[#  17]+0.007*[#  18]
    |psi|^2 = 0.700
==== e(  13) =     4.40608 eV ==== 
     psi = 0.196*[#   7]+0.196*[#   8]+0.196*[#   9]+0.128*[#  16]+0.128*[#  17]
          +0.128*[#  18]+0.014*[#  15]+0.006*[#   6]
    |psi|^2 = 0.995
==== e(  14) =     5.20968 eV ==== 
     psi = 0.203*[#   7]+0.203*[#   8]+0.203*[#   9]+0.127*[#  16]+0.127*[#  17]
          +0.127*[#  18]+0.003*[#  15]
    |psi|^2 = 0.996

 k =   0.5983211225 -0.3807498053 -0.0543928293
==== e(   1) =   -27.51164 eV ==== 
     psi = 0.333*[#   2]+0.333*[#   3]+0.333*[#   5]
    |psi|^2 = 1.000
==== e(   2) =   -27.51123 eV ==== 
     psi = 0.332*[#   2]+0.332*[#   3]+0.332*[#   5]+0.001*[#   1]+0.001*[#   4]
          
    |psi|^2 = 1.000
==== e(   3) =   -27.51084 eV ==== 
     psi = 0.329*[#   2]+0.329*[#   3]+0.329*[#   5]+0.006*[#   1]+0.006*[#   4]
          
    |psi|^2 = 1.000
==== e(   4) =   -27.50373 eV ==== 
     psi = 0.493*[#   1]+0.493*[#   4]+0.004*[#   2]+0.004*[#   3]+0.004*[#   5]
          
    |psi|^2 = 1.000
==== e(   5) =   -27.50295 eV ==== 
     psi = 0.499*[#   1]+0.499*[#   4]
    |psi|^2 = 1.000
==== e(   6) =    -7.11147 eV ==== 
     psi = 0.322*[#  11]+0.322*[#  12]+0.322*[#  14]+0.027*[#   6]+0.001*[#  16]
          +0.001*[#  17]+0.001*[#  18]
    |psi|^2 = 0.997
==== e(   7) =    -7.00839 eV ==== 
     psi = 0.322*[#  11]+0.322*[#  12]+0.322*[#  14]+0.015*[#  10]+0.015*[#  13]
          +0.001*[#  16]+0.001*[#  17]+0.001*[#  18]
    |psi|^2 = 1.002
==== e(   8) =    -6.99836 eV ==== 
     psi = 0.295*[#  11]+0.295*[#  12]+0.295*[#  14]+0.055*[#  10]+0.055*[#  13]
          
    |psi|^2 = 1.001
==== e(   9) =    -6.97434 eV ==== 
     psi = 0.434*[#  10]+0.434*[#  13]+0.044*[#  11]+0.044*[#  12]+0.044*[#  14]
          
    |psi|^2 = 1.000
==== e(  10) =    -6.96334 eV ==== 
     psi = 0.494*[#  10]+0.494*[#  13]+0.004*[#  11]+0.004*[#  12]+0.004*[#  14]
          
    |psi|^2 = 1.000
==== e(  11) =    -2.45059 eV ==== 
     psi = 0.677*[#   6]+0.041*[#  16]+0.041*[#  17]+0.041*[#  18]+0.025*[#  15]
          +0.011*[#  11]+0.011*[#  12]+0.011*[#  14]+0.001*[#   7]+0.001*[#   8]
          +0.001*[#   9]
    |psi|^2 = 0.863
==== e(  12) =     1.39081 eV ==== 
     psi = 0.520*[#  15]+0.068*[#   7]+0.068*[#   8]+0.068*[#   9]+0.016*[#   6]
          +0.002*[#  16]+0.002*[#  17]+0.002*[#  18]
    |psi|^2 = 0.750
==== e(  13) =     4.22974 eV ==== 
     psi = 0.195*[#   7]+0.195*[#   8]+0.195*[#   9]+0.132*[#  16]+0.132*[#  17]
          +0.132*[#  18]+0.008*[#  15]+0.004*[#   6]
    |psi|^2 = 0.995
==== e(  14) =     5.25330 eV ==== 
     psi = 0.204*[#   7]+0.204*[#   8]+0.204*[#   9]+0.125*[#  16]+0.125*[#  17]
          +0.125*[#  18]+0.004*[#  15]+0.001*[#   6]
    |psi|^2 = 0.996

 k =   0.5439282932 -0.3263569759  0.0000000000
==== e(   1) =   -27.51126 eV ==== 
     psi = 0.333*[#   2]+0.333*[#   3]+0.333*[#   5]
    |psi|^2 = 1.000
==== e(   2) =   -27.51114 eV ==== 
     psi = 0.331*[#   2]+0.331*[#   3]+0.331*[#   5]+0.003*[#   1]+0.003*[#   4]
          
    |psi|^2 = 1.000
==== e(   3) =   -27.51049 eV ==== 
     psi = 0.333*[#   2]+0.333*[#   3]+0.333*[#   5]
    |psi|^2 = 1.000
==== e(   4) =   -27.50316 eV ==== 
     psi = 0.499*[#   1]+0.499*[#   4]
    |psi|^2 = 1.000
==== e(   5) =   -27.50181 eV ==== 
     psi = 0.498*[#   1]+0.498*[#   4]+0.001*[#   2]+0.001*[#   3]+0.001*[#   5]
          
    |psi|^2 = 1.000
==== e(   6) =    -7.10857 eV ==== 
     psi = 0.322*[#  11]+0.322*[#  12]+0.322*[#  14]+0.026*[#   6]+0.001*[#  16]
          +0.001*[#  17]+0.001*[#  18]
    |psi|^2 = 0.997
==== e(   7) =    -7.00948 eV ==== 
     psi = 0.321*[#  11]+0.321*[#  12]+0.321*[#  14]+0.017*[#  10]+0.017*[#  13]
          
    |psi|^2 = 1.001
==== e(   8) =    -7.00041 eV ==== 
     psi = 0.303*[#  11]+0.303*[#  12]+0.303*[#  14]+0.044*[#  10]+0.044*[#  13]
          
    |psi|^2 = 1.001
==== e(   9) =    -6.97330 eV ==== 
     psi = 0.446*[#  10]+0.446*[#  13]+0.035*[#  11]+0.035*[#  12]+0.035*[#  14]
          
    |psi|^2 = 1.000
==== e(  10) =    -6.96330 eV ==== 
     psi = 0.490*[#  10]+0.490*[#  13]+0.006*[#  11]+0.006*[#  12]+0.006*[#  14]
          
    |psi|^2 = 1.001
==== e(  11) =    -2.59345 eV ==== 
     psi = 0.651*[#   6]+0.055*[#  16]+0.055*[#  17]+0.055*[#  18]+0.051*[#  15]
          +0.010*[#  11]+0.010*[#  12]+0.010*[#  14]+0.004*[#   7]+0.004*[#   8]
          +0.004*[#   9]
    |psi|^2 = 0.910
==== e(  12) =     1.55476 eV ==== 
     psi = 0.487*[#  15]+0.089*[#   7]+0.089*[#   8]+0.089*[#   9]+0.041*[#   6]
          
    |psi|^2 = 0.800
==== e(  13) =     4.27306 eV ==== 
     psi = 0.193*[#   7]+0.193*[#   8]+0.193*[#   9]+0.130*[#  16]+0.130*[#  17]
          +0.130*[#  18]+0.016*[#  15]+0.006*[#   6]
    |psi|^2 = 0.994
==== e(  14) =     5.48456 eV ==== 
     psi = 0.208*[#   7]+0.208*[#   8]+0.208*[#   9]+0.120*[#  16]+0.120*[#  17]
          +0.120*[#  18]+0.006*[#  15]+0.002*[#   6]
    |psi|^2 = 0.996

 k =   0.7071067812 -0.4895354639 -0.0543928293
==== e(   1) =   -27.51124 eV ==== 
     psi = 0.333*[#   2]+0.333*[#   3]+0.333*[#   5]
    |psi|^2 = 1.000
==== e(   2) =   -27.51096 eV ==== 
     psi = 0.332*[#   2]+0.332*[#   3]+0.332*[#   5]+0.002*[#   1]+0.002*[#   4]
          
    |psi|^2 = 1.000
==== e(   3) =   -27.51009 eV ==== 
     psi = 0.333*[#   2]+0.333*[#   3]+0.333*[#   5]
    |psi|^2 = 1.000
==== e(   4) =   -27.50367 eV ==== 
     psi = 0.498*[#   1]+0.498*[#   4]+0.001*[#   2]+0.001*[#   3]+0.001*[#   5]
          
    |psi|^2 = 1.000
==== e(   5) =   -27.50254 eV ==== 
     psi = 0.500*[#   1]+0.500*[#   4]
    |psi|^2 = 1.000
==== e(   6) =    -7.11668 eV ==== 
     psi = 0.322*[#  11]+0.322*[#  12]+0.322*[#  14]+0.028*[#   6]
    |psi|^2 = 0.997
==== e(   7) =    -7.00257 eV ==== 
     psi = 0.331*[#  11]+0.331*[#  12]+0.331*[#  14]+0.002*[#  10]+0.002*[#  13]
          +0.001*[#  16]+0.001*[#  17]+0.001*[#  18]
    |psi|^2 = 1.003
==== e(   8) =    -6.99581 eV ==== 
     psi = 0.280*[#  11]+0.280*[#  12]+0.280*[#  14]+0.078*[#  10]+0.078*[#  13]
          
    |psi|^2 = 1.000
==== e(   9) =    -6.97924 eV ==== 
     psi = 0.422*[#  10]+0.422*[#  13]+0.051*[#  11]+0.051*[#  12]+0.051*[#  14]
          
    |psi|^2 = 1.000
==== e(  10) =    -6.96000 eV ==== 
     psi = 0.496*[#  10]+0.496*[#  13]+0.003*[#  11]+0.003*[#  12]+0.003*[#  14]
          
    |psi|^2 = 1.000
==== e(  11) =    -2.39551 eV ==== 
     psi = 0.687*[#   6]+0.018*[#  16]+0.018*[#  17]+0.018*[#  18]+0.011*[#  11]
          +0.011*[#  12]+0.011*[#  14]+0.010*[#  15]
    |psi|^2 = 0.784
==== e(  12) =     1.30180 eV ==== 
     psi = 0.533*[#  15]+0.026*[#   7]+0.026*[#   8]+0.026*[#   9]+0.010*[#   6]
          +0.002*[#  16]+0.002*[#  17]+0.002*[#  18]
    |psi|^2 = 0.629
==== e(  13) =     4.66263 eV ==== 
     psi = 0.207*[#   7]+0.207*[#   8]+0.207*[#   9]+0.120*[#  16]+0.120*[#  17]
          +0.120*[#  18]+0.010*[#  15]+0.002*[#   6]
    |psi|^2 = 0.996
==== e(  14) =     4.92419 eV ==== 
     psi = 0.194*[#   7]+0.194*[#   8]+0.194*[#   9]+0.137*[#  16]+0.137*[#  17]
          +0.137*[#  18]
    |psi|^2 = 0.996

 k =   0.6527139519 -0.4351426346  0.0000000000
==== e(   1) =   -27.51153 eV ==== 
     psi = 0.333*[#   2]+0.333*[#   3]+0.333*[#   5]
    |psi|^2 = 1.000
==== e(   2) =   -27.51132 eV ==== 
     psi = 0.333*[#   2]+0.333*[#   3]+0.333*[#   5]
    |psi|^2 = 1.000
==== e(   3) =   -27.51083 eV ==== 
     psi = 0.333*[#   2]+0.333*[#   3]+0.333*[#   5]
    |psi|^2 = 1.000
==== e(   4) =   -27.50429 eV ==== 
     psi = 0.500*[#   1]+0.500*[#   4]
    |psi|^2 = 1.000
==== e(   5) =   -27.50315 eV ==== 
     psi = 0.500*[#   1]+0.500*[#   4]
    |psi|^2 = 1.000
==== e(   6) =    -7.11491 eV ==== 
     psi = 0.322*[#  11]+0.322*[#  12]+0.322*[#  14]+0.027*[#   6]
    |psi|^2 = 0.997
==== e(   7) =    -7.00556 eV ==== 
     psi = 0.329*[#  11]+0.329*[#  12]+0.329*[#  14]+0.006*[#  10]+0.006*[#  13]
          +0.001*[#  16]+0.001*[#  17]+0.001*[#  18]
    |psi|^2 = 1.002
==== e(   8) =    -6.99627 eV ==== 
     psi = 0.281*[#  11]+0.281*[#  12]+0.281*[#  14]+0.076*[#  10]+0.076*[#  13]
          
    |psi|^2 = 1.001
==== e(   9) =    -6.97697 eV ==== 
     psi = 0.420*[#  10]+0.420*[#  13]+0.053*[#  11]+0.053*[#  12]+0.053*[#  14]
          
    |psi|^2 = 1.000
==== e(  10) =    -6.96195 eV ==== 
     psi = 0.497*[#  10]+0.497*[#  13]+0.002*[#  11]+0.002*[#  12]+0.002*[#  14]
          
    |psi|^2 = 1.000
==== e(  11) =    -2.35478 eV ==== 
     psi = 0.695*[#   6]+0.029*[#  16]+0.029*[#  17]+0.029*[#  18]+0.011*[#  11]
          +0.011*[#  12]+0.011*[#  14]+0.004*[#  15]
    |psi|^2 = 0.820
==== e(  12) =     1.29299 eV ==== 
     psi = 0.548*[#  15]+0.044*[#   7]+0.044*[#   8]+0.044*[#   9]+0.002*[#   6]
          
    |psi|^2 = 0.683
==== e(  13) =     4.36892 eV ==== 
     psi = 0.200*[#   7]+0.200*[#   8]+0.200*[#   9]+0.130*[#  16]+0.130*[#  17]
          +0.130*[#  18]
    |psi|^2 = 0.995
==== e(  14) =     4.95706 eV ==== 
     psi = 0.197*[#   7]+0.197*[#   8]+0.197*[#   9]+0.133*[#  16]+0.133*[#  17]
          +0.133*[#  18]+0.003*[#  15]+0.002*[#   6]
    |psi|^2 = 0.996

 k =   0.7071067812 -0.3807498053 -0.0543928293
==== e(   1) =   -27.51133 eV ==== 
     psi = 0.333*[#   2]+0.333*[#   3]+0.333*[#   5]
    |psi|^2 = 1.000
==== e(   2) =   -27.51086 eV ==== 
     psi = 0.330*[#   2]+0.330*[#   3]+0.330*[#   5]+0.005*[#   1]+0.005*[#   4]
          
    |psi|^2 = 1.000
==== e(   3) =   -27.50994 eV ==== 
     psi = 0.333*[#   2]+0.333*[#   3]+0.333*[#   5]
    |psi|^2 = 1.000
==== e(   4) =   -27.50342 eV ==== 
     psi = 0.496*[#   1]+0.496*[#   4]+0.003*[#   2]+0.003*[#   3]+0.003*[#   5]
          
    |psi|^2 = 1.000
==== e(   5) =   -27.50249 eV ==== 
     psi = 0.499*[#   1]+0.499*[#   4]
    |psi|^2 = 1.000
==== e(   6) =    -7.11322 eV ==== 
     psi = 0.322*[#  11]+0.322*[#  12]+0.322*[#  14]+0.027*[#   6]+0.001*[#  16]
          +0.001*[#  17]+0.001*[#  18]
    |psi|^2 = 0.997
==== e(   7) =    -7.00715 eV ==== 
     psi = 0.331*[#  11]+0.331*[#  12]+0.331*[#  14]+0.003*[#  10]+0.003*[#  13]
          +0.001*[#  16]+0.001*[#  17]+0.001*[#  18]
    |psi|^2 = 1.003
==== e(   8) =    -6.99650 eV ==== 
     psi = 0.280*[#  11]+0.280*[#  12]+0.280*[#  14]+0.078*[#  10]+0.078*[#  13]
          +0.001*[#  16]+0.001*[#  17]+0.001*[#  18]
    |psi|^2 = 1.001
==== e(   9) =    -6.97531 eV ==== 
     psi = 0.419*[#  10]+0.419*[#  13]+0.053*[#  11]+0.053*[#  12]+0.053*[#  14]
          
    |psi|^2 = 1.000
==== e(  10) =    -6.96290 eV ==== 
     psi = 0.498*[#  10]+0.498*[#  13]+0.001*[#  11]+0.001*[#  12]+0.001*[#  14]
          
    |psi|^2 = 1.000
==== e(  11) =    -2.36526 eV ==== 
     psi = 0.691*[#   6]+0.038*[#  16]+0.038*[#  17]+0.038*[#  18]+0.011*[#  11]
          +0.011*[#  12]+0.011*[#  14]+0.007*[#  15]
    |psi|^2 = 0.847
==== e(  12) =     1.32955 eV ==== 
     psi = 0.549*[#  15]+0.063*[#   7]+0.063*[#   8]+0.063*[#   9]+0.006*[#   6]
          +0.002*[#  16]+0.002*[#  17]+0.002*[#  18]
    |psi|^2 = 0.748
==== e(  13) =     4.37542 eV ==== 
     psi = 0.204*[#   7]+0.204*[#   8]+0.204*[#   9]+0.126*[#  16]+0.126*[#  17]
          +0.126*[#  18]+0.002*[#  15]+0.001*[#   6]+0.001*[#  10]+0.001*[#  13]
          
    |psi|^2 = 0.995
==== e(  14) =     4.83005 eV ==== 
     psi = 0.191*[#   7]+0.191*[#   8]+0.191*[#   9]+0.140*[#  16]+0.140*[#  17]
          +0.140*[#  18]
    |psi|^2 = 0.995

Lowdin Charges: 

     Atom #   1: total charge =  14.4632, s =  1.4603, 
     Atom #   1: total charge =  14.4632, p =  3.0054, pz=  1.0018, px=  1.0018, py=  1.0018, 
     Atom #   1: total charge =  14.4632, d =  9.9974, dz2=  1.9997, dxz=  1.9993, dyz=  1.9993, dx2-y2=  1.9997, dxy=  1.9993, 
     Atom #   2: total charge =  12.6452, s =  1.1174, 
     Atom #   2: total charge =  12.6452, p =  1.5379, pz=  0.5126, px=  0.5126, py=  0.5126, 
     Atom #   2: total charge =  12.6452, d =  9.9899, dz2=  1.9990, dxz=  1.9973, dyz=  1.9973, dx2-y2=  1.9990, dxy=  1.9973, 
     Spilling Parameter:   0.0318

     PROJWFC      :      1.03s CPU      1.05s WALL


   This run was terminated on:  12: 6:43   6Aug2024            

=------------------------------------------------------------------------------=
   JOB DONE.
=------------------------------------------------------------------------------=
