
     Program PWSCF v.7.3.1 starts on 26Aug2024 at  7:22:28 

     This program is part of the open-source Quantum ESPRESSO suite
     for quantum simulation of materials; please cite
         "P. Giannozzi et al., J. Phys.:Condens. Matter 21 395502 (2009);
         "P. Giannozzi et al., J. Phys.:Condens. Matter 29 465901 (2017);
         "P. Giannozzi et al., J. Chem. Phys. 152 154105 (2020);
          URL http://www.quantum-espresso.org", 
     in publications or presentations arising from this work. More details at
     http://www.quantum-espresso.org/quote

     Parallel version (MPI), running on     1 processors

     MPI processes distributed on     1 nodes
     5466 MiB available memory on the printing compute node when the environment starts

     Reading input from si_lda.pwi

     Current dimensions of program PWSCF are:
     Max number of different atomic species (ntypx) = 10
     Max number of k-points (npk) =  40000
     Max angular momentum in pseudopotentials (lmaxx) =  4
     Message from routine volume:
     axis vectors are left-handed
     Message from routine setup:
     using ibrav=0 with symmetry is DISCOURAGED, use correct ibrav instead

     Subspace diagonalization in iterative solution of the eigenvalue problem:
     a serial algorithm will be used


     G-vector sticks info
     --------------------
     sticks:   dense  smooth     PW     G-vecs:    dense   smooth      PW
     Sum         859     433    151                16889     5985    1139

     Using Slab Decomposition



     bravais-lattice index     =            0
     lattice parameter (alat)  =       7.2571  a.u.
     unit-cell volume          =     270.2504 (a.u.)^3
     number of atoms/cell      =            2
     number of atomic types    =            1
     number of electrons       =         8.00 (up:   4.00, down:   4.00)
     number of Kohn-Sham states=            4
     kinetic-energy cutoff     =      30.0000  Ry
     charge density cutoff     =     240.0000  Ry
     scf convergence threshold =      4.0E-10
     mixing beta               =       0.4000
     number of iterations used =            8  plain     mixing
     Exchange-correlation= SLA  PW   NOGX NOGC
                           (   1   4   0   0   0   0   0)

     celldm(1)=   7.257056  celldm(2)=   0.000000  celldm(3)=   0.000000
     celldm(4)=   0.000000  celldm(5)=   0.000000  celldm(6)=   0.000000

     crystal axes: (cart. coord. in units of alat)
               a(1) = (   0.707107   0.707107   0.000000 )  
               a(2) = (   0.707107   0.000000   0.707107 )  
               a(3) = (   0.000000   0.707107   0.707107 )  

     reciprocal axes: (cart. coord. in units 2 pi/alat)
               b(1) = (  0.707107  0.707107 -0.707107 )  
               b(2) = (  0.707107 -0.707107  0.707107 )  
               b(3) = ( -0.707107  0.707107  0.707107 )  


     PseudoPot. # 1 for Si read from file:
     ./pseudo/Si_lda.upf
     MD5 check sum: 9e2d726316af3d4752eea8ab0afbb951
     Pseudo is Norm-conserving + core correction, Zval =  4.0
     Generated using ONCVPSP code by D. R. Hamann
     Using radial grid of 1510 points,  6 beta functions with: 
                l(1) =   0
                l(2) =   0
                l(3) =   1
                l(4) =   1
                l(5) =   2
                l(6) =   2

     atomic species   valence    mass     pseudopotential
     Si                4.00    28.08550     Si( 1.00)

     Starting magnetic structure 
     atomic species   magnetization
     Si              0.000

     48 Sym. Ops., with inversion, found (24 have fractional translation)


                                    s                        frac. trans.

      isym =  1     identity                                     

 cryst.   s( 1) = (     1          0          0      )
                  (     0          1          0      )
                  (     0          0          1      )

 cart.    s( 1) = (  1.0000000  0.0000000  0.0000000 )
                  (  0.0000000  1.0000000  0.0000000 )
                  (  0.0000000  0.0000000  1.0000000 )


      isym =  2     180 deg rotation - cart. axis [0,0,1]        

 cryst.   s( 2) = (    -1          0          0      )
                  (    -1          0          1      )
                  (    -1          1          0      )

 cart.    s( 2) = ( -1.0000000  0.0000000  0.0000000 )
                  (  0.0000000 -1.0000000  0.0000000 )
                  (  0.0000000  0.0000000  1.0000000 )


      isym =  3     180 deg rotation - cart. axis [0,1,0]        

 cryst.   s( 3) = (     0         -1          1      )
                  (     0         -1          0      )
                  (     1         -1          0      )

 cart.    s( 3) = ( -1.0000000  0.0000000  0.0000000 )
                  (  0.0000000  1.0000000  0.0000000 )
                  (  0.0000000  0.0000000 -1.0000000 )


      isym =  4     180 deg rotation - cart. axis [1,0,0]        

 cryst.   s( 4) = (     0          1         -1      )
                  (     1          0         -1      )
                  (     0          0         -1      )

 cart.    s( 4) = (  1.0000000  0.0000000  0.0000000 )
                  (  0.0000000 -1.0000000  0.0000000 )
                  (  0.0000000  0.0000000 -1.0000000 )


      isym =  5     180 deg rotation - cart. axis [1,1,0]        

 cryst.   s( 5) = (     1          0          0      )    f =( -0.2500000 )
                  (     1         -1          0      )       ( -0.2500000 )
                  (     1          0         -1      )       ( -0.2500000 )

 cart.    s( 5) = (  0.0000000  1.0000000  0.0000000 )    f =( -0.3535534 )
                  (  1.0000000  0.0000000  0.0000000 )       ( -0.3535534 )
                  (  0.0000000  0.0000000 -1.0000000 )       ( -0.3535534 )


      isym =  6     180 deg rotation - cart. axis [1,-1,0]       

 cryst.   s( 6) = (    -1          0          0      )    f =( -0.2500000 )
                  (     0          0         -1      )       ( -0.2500000 )
                  (     0         -1          0      )       ( -0.2500000 )

 cart.    s( 6) = (  0.0000000 -1.0000000  0.0000000 )    f =( -0.3535534 )
                  ( -1.0000000  0.0000000  0.0000000 )       ( -0.3535534 )
                  (  0.0000000  0.0000000 -1.0000000 )       ( -0.3535534 )


      isym =  7      90 deg rotation - cart. axis [0,0,-1]       

 cryst.   s( 7) = (     0          1         -1      )    f =( -0.2500000 )
                  (    -1          1          0      )       ( -0.2500000 )
                  (     0          1          0      )       ( -0.2500000 )

 cart.    s( 7) = (  0.0000000  1.0000000  0.0000000 )    f =( -0.3535534 )
                  ( -1.0000000  0.0000000  0.0000000 )       ( -0.3535534 )
                  (  0.0000000  0.0000000  1.0000000 )       ( -0.3535534 )


      isym =  8      90 deg rotation - cart. axis [0,0,1]        

 cryst.   s( 8) = (     0         -1          1      )    f =( -0.2500000 )
                  (     0          0          1      )       ( -0.2500000 )
                  (    -1          0          1      )       ( -0.2500000 )

 cart.    s( 8) = (  0.0000000 -1.0000000  0.0000000 )    f =( -0.3535534 )
                  (  1.0000000  0.0000000  0.0000000 )       ( -0.3535534 )
                  (  0.0000000  0.0000000  1.0000000 )       ( -0.3535534 )


      isym =  9     180 deg rotation - cart. axis [1,0,1]        

 cryst.   s( 9) = (    -1          1          0      )    f =( -0.2500000 )
                  (     0          1          0      )       ( -0.2500000 )
                  (     0          1         -1      )       ( -0.2500000 )

 cart.    s( 9) = (  0.0000000  0.0000000  1.0000000 )    f =( -0.3535534 )
                  (  0.0000000 -1.0000000  0.0000000 )       ( -0.3535534 )
                  (  1.0000000  0.0000000  0.0000000 )       ( -0.3535534 )


      isym = 10     180 deg rotation - cart. axis [-1,0,1]       

 cryst.   s(10) = (     0          0         -1      )    f =( -0.2500000 )
                  (     0         -1          0      )       ( -0.2500000 )
                  (    -1          0          0      )       ( -0.2500000 )

 cart.    s(10) = (  0.0000000  0.0000000 -1.0000000 )    f =( -0.3535534 )
                  (  0.0000000 -1.0000000  0.0000000 )       ( -0.3535534 )
                  ( -1.0000000  0.0000000  0.0000000 )       ( -0.3535534 )


      isym = 11      90 deg rotation - cart. axis [0,1,0]        

 cryst.   s(11) = (     1         -1          0      )    f =( -0.2500000 )
                  (     1          0         -1      )       ( -0.2500000 )
                  (     1          0          0      )       ( -0.2500000 )

 cart.    s(11) = (  0.0000000  0.0000000  1.0000000 )    f =( -0.3535534 )
                  (  0.0000000  1.0000000  0.0000000 )       ( -0.3535534 )
                  ( -1.0000000  0.0000000  0.0000000 )       ( -0.3535534 )


      isym = 12      90 deg rotation - cart. axis [0,-1,0]       

 cryst.   s(12) = (     0          0          1      )    f =( -0.2500000 )
                  (    -1          0          1      )       ( -0.2500000 )
                  (     0         -1          1      )       ( -0.2500000 )

 cart.    s(12) = (  0.0000000  0.0000000 -1.0000000 )    f =( -0.3535534 )
                  (  0.0000000  1.0000000  0.0000000 )       ( -0.3535534 )
                  (  1.0000000  0.0000000  0.0000000 )       ( -0.3535534 )


      isym = 13     180 deg rotation - cart. axis [0,1,1]        

 cryst.   s(13) = (    -1          0          1      )    f =( -0.2500000 )
                  (     0         -1          1      )       ( -0.2500000 )
                  (     0          0          1      )       ( -0.2500000 )

 cart.    s(13) = ( -1.0000000  0.0000000  0.0000000 )    f =( -0.3535534 )
                  (  0.0000000  0.0000000  1.0000000 )       ( -0.3535534 )
                  (  0.0000000  1.0000000  0.0000000 )       ( -0.3535534 )


      isym = 14     180 deg rotation - cart. axis [0,1,-1]       

 cryst.   s(14) = (     0         -1          0      )    f =( -0.2500000 )
                  (    -1          0          0      )       ( -0.2500000 )
                  (     0          0         -1      )       ( -0.2500000 )

 cart.    s(14) = ( -1.0000000  0.0000000  0.0000000 )    f =( -0.3535534 )
                  (  0.0000000  0.0000000 -1.0000000 )       ( -0.3535534 )
                  (  0.0000000 -1.0000000  0.0000000 )       ( -0.3535534 )


      isym = 15      90 deg rotation - cart. axis [-1,0,0]       

 cryst.   s(15) = (     1          0         -1      )    f =( -0.2500000 )
                  (     1          0          0      )       ( -0.2500000 )
                  (     1         -1          0      )       ( -0.2500000 )

 cart.    s(15) = (  1.0000000  0.0000000  0.0000000 )    f =( -0.3535534 )
                  (  0.0000000  0.0000000  1.0000000 )       ( -0.3535534 )
                  (  0.0000000 -1.0000000  0.0000000 )       ( -0.3535534 )


      isym = 16      90 deg rotation - cart. axis [1,0,0]        

 cryst.   s(16) = (     0          1          0      )    f =( -0.2500000 )
                  (     0          1         -1      )       ( -0.2500000 )
                  (    -1          1          0      )       ( -0.2500000 )

 cart.    s(16) = (  1.0000000  0.0000000  0.0000000 )    f =( -0.3535534 )
                  (  0.0000000  0.0000000 -1.0000000 )       ( -0.3535534 )
                  (  0.0000000  1.0000000  0.0000000 )       ( -0.3535534 )


      isym = 17     120 deg rotation - cart. axis [-1,-1,-1]     

 cryst.   s(17) = (     0          1          0      )
                  (     0          0          1      )
                  (     1          0          0      )

 cart.    s(17) = (  0.0000000  1.0000000  0.0000000 )
                  (  0.0000000  0.0000000  1.0000000 )
                  (  1.0000000  0.0000000  0.0000000 )


      isym = 18     120 deg rotation - cart. axis [-1,1,1]       

 cryst.   s(18) = (     0         -1          0      )
                  (     1         -1          0      )
                  (     0         -1          1      )

 cart.    s(18) = (  0.0000000 -1.0000000  0.0000000 )
                  (  0.0000000  0.0000000  1.0000000 )
                  ( -1.0000000  0.0000000  0.0000000 )


      isym = 19     120 deg rotation - cart. axis [1,1,-1]       

 cryst.   s(19) = (     1          0         -1      )
                  (     0          0         -1      )
                  (     0          1         -1      )

 cart.    s(19) = (  0.0000000  1.0000000  0.0000000 )
                  (  0.0000000  0.0000000 -1.0000000 )
                  ( -1.0000000  0.0000000  0.0000000 )


      isym = 20     120 deg rotation - cart. axis [1,-1,1]       

 cryst.   s(20) = (    -1          0          1      )
                  (    -1          1          0      )
                  (    -1          0          0      )

 cart.    s(20) = (  0.0000000 -1.0000000  0.0000000 )
                  (  0.0000000  0.0000000 -1.0000000 )
                  (  1.0000000  0.0000000  0.0000000 )


      isym = 21     120 deg rotation - cart. axis [1,1,1]        

 cryst.   s(21) = (     0          0          1      )
                  (     1          0          0      )
                  (     0          1          0      )

 cart.    s(21) = (  0.0000000  0.0000000  1.0000000 )
                  (  1.0000000  0.0000000  0.0000000 )
                  (  0.0000000  1.0000000  0.0000000 )


      isym = 22     120 deg rotation - cart. axis [-1,1,-1]      

 cryst.   s(22) = (     0          0         -1      )
                  (     0          1         -1      )
                  (     1          0         -1      )

 cart.    s(22) = (  0.0000000  0.0000000  1.0000000 )
                  ( -1.0000000  0.0000000  0.0000000 )
                  (  0.0000000 -1.0000000  0.0000000 )


      isym = 23     120 deg rotation - cart. axis [1,-1,-1]      

 cryst.   s(23) = (    -1          1          0      )
                  (    -1          0          0      )
                  (    -1          0          1      )

 cart.    s(23) = (  0.0000000  0.0000000 -1.0000000 )
                  ( -1.0000000  0.0000000  0.0000000 )
                  (  0.0000000  1.0000000  0.0000000 )


      isym = 24     120 deg rotation - cart. axis [-1,-1,1]      

 cryst.   s(24) = (     1         -1          0      )
                  (     0         -1          1      )
                  (     0         -1          0      )

 cart.    s(24) = (  0.0000000  0.0000000 -1.0000000 )
                  (  1.0000000  0.0000000  0.0000000 )
                  (  0.0000000 -1.0000000  0.0000000 )


      isym = 25     inversion                                    

 cryst.   s(25) = (    -1          0          0      )    f =( -0.2500000 )
                  (     0         -1          0      )       ( -0.2500000 )
                  (     0          0         -1      )       ( -0.2500000 )

 cart.    s(25) = ( -1.0000000  0.0000000  0.0000000 )    f =( -0.3535534 )
                  (  0.0000000 -1.0000000  0.0000000 )       ( -0.3535534 )
                  (  0.0000000  0.0000000 -1.0000000 )       ( -0.3535534 )


      isym = 26     inv. 180 deg rotation - cart. axis [0,0,1]   

 cryst.   s(26) = (     1          0          0      )    f =( -0.2500000 )
                  (     1          0         -1      )       ( -0.2500000 )
                  (     1         -1          0      )       ( -0.2500000 )

 cart.    s(26) = (  1.0000000  0.0000000  0.0000000 )    f =( -0.3535534 )
                  (  0.0000000  1.0000000  0.0000000 )       ( -0.3535534 )
                  (  0.0000000  0.0000000 -1.0000000 )       ( -0.3535534 )


      isym = 27     inv. 180 deg rotation - cart. axis [0,1,0]   

 cryst.   s(27) = (     0          1         -1      )    f =( -0.2500000 )
                  (     0          1          0      )       ( -0.2500000 )
                  (    -1          1          0      )       ( -0.2500000 )

 cart.    s(27) = (  1.0000000  0.0000000  0.0000000 )    f =( -0.3535534 )
                  (  0.0000000 -1.0000000  0.0000000 )       ( -0.3535534 )
                  (  0.0000000  0.0000000  1.0000000 )       ( -0.3535534 )


      isym = 28     inv. 180 deg rotation - cart. axis [1,0,0]   

 cryst.   s(28) = (     0         -1          1      )    f =( -0.2500000 )
                  (    -1          0          1      )       ( -0.2500000 )
                  (     0          0          1      )       ( -0.2500000 )

 cart.    s(28) = ( -1.0000000  0.0000000  0.0000000 )    f =( -0.3535534 )
                  (  0.0000000  1.0000000  0.0000000 )       ( -0.3535534 )
                  (  0.0000000  0.0000000  1.0000000 )       ( -0.3535534 )


      isym = 29     inv. 180 deg rotation - cart. axis [1,1,0]   

 cryst.   s(29) = (    -1          0          0      )
                  (    -1          1          0      )
                  (    -1          0          1      )

 cart.    s(29) = (  0.0000000 -1.0000000  0.0000000 )
                  ( -1.0000000  0.0000000  0.0000000 )
                  (  0.0000000  0.0000000  1.0000000 )


      isym = 30     inv. 180 deg rotation - cart. axis [1,-1,0]  

 cryst.   s(30) = (     1          0          0      )
                  (     0          0          1      )
                  (     0          1          0      )

 cart.    s(30) = (  0.0000000  1.0000000  0.0000000 )
                  (  1.0000000  0.0000000  0.0000000 )
                  (  0.0000000  0.0000000  1.0000000 )


      isym = 31     inv.  90 deg rotation - cart. axis [0,0,-1]  

 cryst.   s(31) = (     0         -1          1      )
                  (     1         -1          0      )
                  (     0         -1          0      )

 cart.    s(31) = (  0.0000000 -1.0000000  0.0000000 )
                  (  1.0000000  0.0000000  0.0000000 )
                  (  0.0000000  0.0000000 -1.0000000 )


      isym = 32     inv.  90 deg rotation - cart. axis [0,0,1]   

 cryst.   s(32) = (     0          1         -1      )
                  (     0          0         -1      )
                  (     1          0         -1      )

 cart.    s(32) = (  0.0000000  1.0000000  0.0000000 )
                  ( -1.0000000  0.0000000  0.0000000 )
                  (  0.0000000  0.0000000 -1.0000000 )


      isym = 33     inv. 180 deg rotation - cart. axis [1,0,1]   

 cryst.   s(33) = (     1         -1          0      )
                  (     0         -1          0      )
                  (     0         -1          1      )

 cart.    s(33) = (  0.0000000  0.0000000 -1.0000000 )
                  (  0.0000000  1.0000000  0.0000000 )
                  ( -1.0000000  0.0000000  0.0000000 )


      isym = 34     inv. 180 deg rotation - cart. axis [-1,0,1]  

 cryst.   s(34) = (     0          0          1      )
                  (     0          1          0      )
                  (     1          0          0      )

 cart.    s(34) = (  0.0000000  0.0000000  1.0000000 )
                  (  0.0000000  1.0000000  0.0000000 )
                  (  1.0000000  0.0000000  0.0000000 )


      isym = 35     inv.  90 deg rotation - cart. axis [0,1,0]   

 cryst.   s(35) = (    -1          1          0      )
                  (    -1          0          1      )
                  (    -1          0          0      )

 cart.    s(35) = (  0.0000000  0.0000000 -1.0000000 )
                  (  0.0000000 -1.0000000  0.0000000 )
                  (  1.0000000  0.0000000  0.0000000 )


      isym = 36     inv.  90 deg rotation - cart. axis [0,-1,0]  

 cryst.   s(36) = (     0          0         -1      )
                  (     1          0         -1      )
                  (     0          1         -1      )

 cart.    s(36) = (  0.0000000  0.0000000  1.0000000 )
                  (  0.0000000 -1.0000000  0.0000000 )
                  ( -1.0000000  0.0000000  0.0000000 )


      isym = 37     inv. 180 deg rotation - cart. axis [0,1,1]   

 cryst.   s(37) = (     1          0         -1      )
                  (     0          1         -1      )
                  (     0          0         -1      )

 cart.    s(37) = (  1.0000000  0.0000000  0.0000000 )
                  (  0.0000000  0.0000000 -1.0000000 )
                  (  0.0000000 -1.0000000  0.0000000 )


      isym = 38     inv. 180 deg rotation - cart. axis [0,1,-1]  

 cryst.   s(38) = (     0          1          0      )
                  (     1          0          0      )
                  (     0          0          1      )

 cart.    s(38) = (  1.0000000  0.0000000  0.0000000 )
                  (  0.0000000  0.0000000  1.0000000 )
                  (  0.0000000  1.0000000  0.0000000 )


      isym = 39     inv.  90 deg rotation - cart. axis [-1,0,0]  

 cryst.   s(39) = (    -1          0          1      )
                  (    -1          0          0      )
                  (    -1          1          0      )

 cart.    s(39) = ( -1.0000000  0.0000000  0.0000000 )
                  (  0.0000000  0.0000000 -1.0000000 )
                  (  0.0000000  1.0000000  0.0000000 )


      isym = 40     inv.  90 deg rotation - cart. axis [1,0,0]   

 cryst.   s(40) = (     0         -1          0      )
                  (     0         -1          1      )
                  (     1         -1          0      )

 cart.    s(40) = ( -1.0000000  0.0000000  0.0000000 )
                  (  0.0000000  0.0000000  1.0000000 )
                  (  0.0000000 -1.0000000  0.0000000 )


      isym = 41     inv. 120 deg rotation - cart. axis [-1,-1,-1]

 cryst.   s(41) = (     0         -1          0      )    f =( -0.2500000 )
                  (     0          0         -1      )       ( -0.2500000 )
                  (    -1          0          0      )       ( -0.2500000 )

 cart.    s(41) = (  0.0000000 -1.0000000  0.0000000 )    f =( -0.3535534 )
                  (  0.0000000  0.0000000 -1.0000000 )       ( -0.3535534 )
                  ( -1.0000000  0.0000000  0.0000000 )       ( -0.3535534 )


      isym = 42     inv. 120 deg rotation - cart. axis [-1,1,1]  

 cryst.   s(42) = (     0          1          0      )    f =( -0.2500000 )
                  (    -1          1          0      )       ( -0.2500000 )
                  (     0          1         -1      )       ( -0.2500000 )

 cart.    s(42) = (  0.0000000  1.0000000  0.0000000 )    f =( -0.3535534 )
                  (  0.0000000  0.0000000 -1.0000000 )       ( -0.3535534 )
                  (  1.0000000  0.0000000  0.0000000 )       ( -0.3535534 )


      isym = 43     inv. 120 deg rotation - cart. axis [1,1,-1]  

 cryst.   s(43) = (    -1          0          1      )    f =( -0.2500000 )
                  (     0          0          1      )       ( -0.2500000 )
                  (     0         -1          1      )       ( -0.2500000 )

 cart.    s(43) = (  0.0000000 -1.0000000  0.0000000 )    f =( -0.3535534 )
                  (  0.0000000  0.0000000  1.0000000 )       ( -0.3535534 )
                  (  1.0000000  0.0000000  0.0000000 )       ( -0.3535534 )


      isym = 44     inv. 120 deg rotation - cart. axis [1,-1,1]  

 cryst.   s(44) = (     1          0         -1      )    f =( -0.2500000 )
                  (     1         -1          0      )       ( -0.2500000 )
                  (     1          0          0      )       ( -0.2500000 )

 cart.    s(44) = (  0.0000000  1.0000000  0.0000000 )    f =( -0.3535534 )
                  (  0.0000000  0.0000000  1.0000000 )       ( -0.3535534 )
                  ( -1.0000000  0.0000000  0.0000000 )       ( -0.3535534 )


      isym = 45     inv. 120 deg rotation - cart. axis [1,1,1]   

 cryst.   s(45) = (     0          0         -1      )    f =( -0.2500000 )
                  (    -1          0          0      )       ( -0.2500000 )
                  (     0         -1          0      )       ( -0.2500000 )

 cart.    s(45) = (  0.0000000  0.0000000 -1.0000000 )    f =( -0.3535534 )
                  ( -1.0000000  0.0000000  0.0000000 )       ( -0.3535534 )
                  (  0.0000000 -1.0000000  0.0000000 )       ( -0.3535534 )


      isym = 46     inv. 120 deg rotation - cart. axis [-1,1,-1] 

 cryst.   s(46) = (     0          0          1      )    f =( -0.2500000 )
                  (     0         -1          1      )       ( -0.2500000 )
                  (    -1          0          1      )       ( -0.2500000 )

 cart.    s(46) = (  0.0000000  0.0000000 -1.0000000 )    f =( -0.3535534 )
                  (  1.0000000  0.0000000  0.0000000 )       ( -0.3535534 )
                  (  0.0000000  1.0000000  0.0000000 )       ( -0.3535534 )


      isym = 47     inv. 120 deg rotation - cart. axis [1,-1,-1] 

 cryst.   s(47) = (     1         -1          0      )    f =( -0.2500000 )
                  (     1          0          0      )       ( -0.2500000 )
                  (     1          0         -1      )       ( -0.2500000 )

 cart.    s(47) = (  0.0000000  0.0000000  1.0000000 )    f =( -0.3535534 )
                  (  1.0000000  0.0000000  0.0000000 )       ( -0.3535534 )
                  (  0.0000000 -1.0000000  0.0000000 )       ( -0.3535534 )


      isym = 48     inv. 120 deg rotation - cart. axis [-1,-1,1] 

 cryst.   s(48) = (    -1          1          0      )    f =( -0.2500000 )
                  (     0          1         -1      )       ( -0.2500000 )
                  (     0          1          0      )       ( -0.2500000 )

 cart.    s(48) = (  0.0000000  0.0000000  1.0000000 )    f =( -0.3535534 )
                  ( -1.0000000  0.0000000  0.0000000 )       ( -0.3535534 )
                  (  0.0000000  1.0000000  0.0000000 )       ( -0.3535534 )


   Cartesian axes

     site n.     atom                  positions (alat units)
         1        Si     tau(   1) = (   0.0000000   0.0000000   0.0000000  )
         2        Si     tau(   2) = (   0.3535534   0.3535534   0.3535534  )

   Crystallographic axes

     site n.     atom                  positions (cryst. coord.)
         1        Si     tau(   1) = (  0.0000000  0.0000000  0.0000000  )
         2        Si     tau(   2) = (  0.2500000  0.2500000  0.2500000  )

     number of k points=    56
                       cart. coord. in units 2pi/alat
        k(    1) = (   0.0000000   0.0000000   0.0000000), wk =   0.0007513
        k(    2) = (  -0.0642824   0.0642824   0.0642824), wk =   0.0060105
        k(    3) = (  -0.1285649   0.1285649   0.1285649), wk =   0.0060105
        k(    4) = (  -0.1928473   0.1928473   0.1928473), wk =   0.0060105
        k(    5) = (  -0.2571297   0.2571297   0.2571297), wk =   0.0060105
        k(    6) = (  -0.3214122   0.3214122   0.3214122), wk =   0.0060105
        k(    7) = (   0.0000000   0.0000000   0.1285649), wk =   0.0045079
        k(    8) = (  -0.0642824   0.0642824   0.1928473), wk =   0.0180316
        k(    9) = (  -0.1285649   0.1285649   0.2571297), wk =   0.0180316
        k(   10) = (  -0.1928473   0.1928473   0.3214122), wk =   0.0180316
        k(   11) = (  -0.2571297   0.2571297   0.3856946), wk =   0.0180316
        k(   12) = (   0.3856946  -0.3856946  -0.2571297), wk =   0.0180316
        k(   13) = (   0.3214122  -0.3214122  -0.1928473), wk =   0.0180316
        k(   14) = (   0.2571297  -0.2571297  -0.1285649), wk =   0.0180316
        k(   15) = (   0.1928473  -0.1928473  -0.0642824), wk =   0.0180316
        k(   16) = (   0.1285649  -0.1285649  -0.0000000), wk =   0.0090158
        k(   17) = (   0.0000000   0.0000000   0.2571297), wk =   0.0045079
        k(   18) = (  -0.0642824   0.0642824   0.3214122), wk =   0.0180316
        k(   19) = (  -0.1285649   0.1285649   0.3856946), wk =   0.0180316
        k(   20) = (  -0.1928473   0.1928473   0.4499770), wk =   0.0180316
        k(   21) = (   0.4499770  -0.4499770  -0.1928473), wk =   0.0180316
        k(   22) = (   0.3856946  -0.3856946  -0.1285649), wk =   0.0180316
        k(   23) = (   0.3214122  -0.3214122  -0.0642824), wk =   0.0180316
        k(   24) = (   0.2571297  -0.2571297   0.0000000), wk =   0.0090158
        k(   25) = (   0.0000000   0.0000000   0.3856946), wk =   0.0045079
        k(   26) = (  -0.0642824   0.0642824   0.4499770), wk =   0.0180316
        k(   27) = (  -0.1285649   0.1285649   0.5142595), wk =   0.0180316
        k(   28) = (   0.5142595  -0.5142595  -0.1285649), wk =   0.0180316
        k(   29) = (   0.4499770  -0.4499770  -0.0642824), wk =   0.0180316
        k(   30) = (   0.3856946  -0.3856946   0.0000000), wk =   0.0090158
        k(   31) = (   0.0000000   0.0000000   0.5142595), wk =   0.0045079
        k(   32) = (  -0.0642824   0.0642824   0.5785419), wk =   0.0180316
        k(   33) = (   0.5785419  -0.5785419  -0.0642824), wk =   0.0180316
        k(   34) = (   0.5142595  -0.5142595   0.0000000), wk =   0.0090158
        k(   35) = (   0.0000000   0.0000000   0.6428243), wk =   0.0045079
        k(   36) = (   0.6428243  -0.6428243  -0.0000000), wk =   0.0090158
        k(   37) = (   0.0000000   0.1285649   0.2571297), wk =   0.0180316
        k(   38) = (  -0.0642824   0.1928473   0.3214122), wk =   0.0360631
        k(   39) = (  -0.1285649   0.2571297   0.3856946), wk =   0.0360631
        k(   40) = (   0.5142595  -0.3856946  -0.2571297), wk =   0.0360631
        k(   41) = (   0.0000000   0.1285649   0.3856946), wk =   0.0180316
        k(   42) = (  -0.0642824   0.1928473   0.4499770), wk =   0.0360631
        k(   43) = (   0.5785419  -0.4499770  -0.1928473), wk =   0.0360631
        k(   44) = (   0.5142595  -0.3856946  -0.1285649), wk =   0.0360631
        k(   45) = (   0.4499770  -0.3214122  -0.0642824), wk =   0.0360631
        k(   46) = (   0.3856946  -0.2571297   0.0000000), wk =   0.0180316
        k(   47) = (   0.0000000   0.1285649   0.5142595), wk =   0.0180316
        k(   48) = (   0.6428243  -0.5142595  -0.1285649), wk =   0.0360631
        k(   49) = (   0.5785419  -0.4499770  -0.0642824), wk =   0.0360631
        k(   50) = (   0.5142595  -0.3856946   0.0000000), wk =   0.0180316
        k(   51) = (   0.7071068  -0.5785419  -0.0642824), wk =   0.0180316
        k(   52) = (   0.6428243  -0.5142595   0.0000000), wk =   0.0180316
        k(   53) = (   0.7071068  -0.4499770  -0.1928473), wk =   0.0180316
        k(   54) = (   0.6428243  -0.3856946  -0.1285649), wk =   0.0360631
        k(   55) = (   0.7071068  -0.4499770  -0.0642824), wk =   0.0180316
        k(   56) = (   0.6428243  -0.3856946   0.0000000), wk =   0.0180316

                       cryst. coord.
        k(    1) = (   0.0000000   0.0000000   0.0000000), wk =   0.0007513
        k(    2) = (   0.0000000   0.0000000   0.0909091), wk =   0.0060105
        k(    3) = (   0.0000000   0.0000000   0.1818182), wk =   0.0060105
        k(    4) = (   0.0000000   0.0000000   0.2727273), wk =   0.0060105
        k(    5) = (   0.0000000   0.0000000   0.3636364), wk =   0.0060105
        k(    6) = (   0.0000000   0.0000000   0.4545455), wk =   0.0060105
        k(    7) = (   0.0000000   0.0909091   0.0909091), wk =   0.0045079
        k(    8) = (   0.0000000   0.0909091   0.1818182), wk =   0.0180316
        k(    9) = (   0.0000000   0.0909091   0.2727273), wk =   0.0180316
        k(   10) = (   0.0000000   0.0909091   0.3636364), wk =   0.0180316
        k(   11) = (   0.0000000   0.0909091   0.4545455), wk =   0.0180316
        k(   12) = (   0.0000000   0.0909091  -0.4545455), wk =   0.0180316
        k(   13) = (   0.0000000   0.0909091  -0.3636364), wk =   0.0180316
        k(   14) = (   0.0000000   0.0909091  -0.2727273), wk =   0.0180316
        k(   15) = (   0.0000000   0.0909091  -0.1818182), wk =   0.0180316
        k(   16) = (   0.0000000   0.0909091  -0.0909091), wk =   0.0090158
        k(   17) = (   0.0000000   0.1818182   0.1818182), wk =   0.0045079
        k(   18) = (   0.0000000   0.1818182   0.2727273), wk =   0.0180316
        k(   19) = (   0.0000000   0.1818182   0.3636364), wk =   0.0180316
        k(   20) = (   0.0000000   0.1818182   0.4545455), wk =   0.0180316
        k(   21) = (   0.0000000   0.1818182  -0.4545455), wk =   0.0180316
        k(   22) = (   0.0000000   0.1818182  -0.3636364), wk =   0.0180316
        k(   23) = (   0.0000000   0.1818182  -0.2727273), wk =   0.0180316
        k(   24) = (   0.0000000   0.1818182  -0.1818182), wk =   0.0090158
        k(   25) = (   0.0000000   0.2727273   0.2727273), wk =   0.0045079
        k(   26) = (   0.0000000   0.2727273   0.3636364), wk =   0.0180316
        k(   27) = (   0.0000000   0.2727273   0.4545455), wk =   0.0180316
        k(   28) = (   0.0000000   0.2727273  -0.4545455), wk =   0.0180316
        k(   29) = (   0.0000000   0.2727273  -0.3636364), wk =   0.0180316
        k(   30) = (   0.0000000   0.2727273  -0.2727273), wk =   0.0090158
        k(   31) = (   0.0000000   0.3636364   0.3636364), wk =   0.0045079
        k(   32) = (   0.0000000   0.3636364   0.4545455), wk =   0.0180316
        k(   33) = (   0.0000000   0.3636364  -0.4545455), wk =   0.0180316
        k(   34) = (   0.0000000   0.3636364  -0.3636364), wk =   0.0090158
        k(   35) = (   0.0000000   0.4545455   0.4545455), wk =   0.0045079
        k(   36) = (   0.0000000   0.4545455  -0.4545455), wk =   0.0090158
        k(   37) = (   0.0909091   0.1818182   0.2727273), wk =   0.0180316
        k(   38) = (   0.0909091   0.1818182   0.3636364), wk =   0.0360631
        k(   39) = (   0.0909091   0.1818182   0.4545455), wk =   0.0360631
        k(   40) = (   0.0909091   0.1818182  -0.4545455), wk =   0.0360631
        k(   41) = (   0.0909091   0.2727273   0.3636364), wk =   0.0180316
        k(   42) = (   0.0909091   0.2727273   0.4545455), wk =   0.0360631
        k(   43) = (   0.0909091   0.2727273  -0.4545455), wk =   0.0360631
        k(   44) = (   0.0909091   0.2727273  -0.3636364), wk =   0.0360631
        k(   45) = (   0.0909091   0.2727273  -0.2727273), wk =   0.0360631
        k(   46) = (   0.0909091   0.2727273  -0.1818182), wk =   0.0180316
        k(   47) = (   0.0909091   0.3636364   0.4545455), wk =   0.0180316
        k(   48) = (   0.0909091   0.3636364  -0.4545455), wk =   0.0360631
        k(   49) = (   0.0909091   0.3636364  -0.3636364), wk =   0.0360631
        k(   50) = (   0.0909091   0.3636364  -0.2727273), wk =   0.0180316
        k(   51) = (   0.0909091   0.4545455  -0.4545455), wk =   0.0180316
        k(   52) = (   0.0909091   0.4545455  -0.3636364), wk =   0.0180316
        k(   53) = (   0.1818182   0.3636364  -0.4545455), wk =   0.0180316
        k(   54) = (   0.1818182   0.3636364  -0.3636364), wk =   0.0360631
        k(   55) = (   0.1818182   0.4545455  -0.3636364), wk =   0.0180316
        k(   56) = (   0.1818182   0.4545455  -0.2727273), wk =   0.0180316

     Dense  grid:    16889 G-vectors     FFT dimensions: (  36,  36,  36)

     Smooth grid:     5985 G-vectors     FFT dimensions: (  32,  32,  32)

     Dynamical RAM for                 wfc:       0.05 MB

     Dynamical RAM for     wfc (w. buffer):       5.17 MB

     Dynamical RAM for           str. fact:       0.26 MB

     Dynamical RAM for           local pot:       0.00 MB

     Dynamical RAM for          nlocal pot:       0.41 MB

     Dynamical RAM for                qrad:       1.24 MB

     Dynamical RAM for          rho,v,vnew:       3.68 MB

     Dynamical RAM for               rhoin:       1.23 MB

     Dynamical RAM for            rho*nmix:       8.25 MB

     Dynamical RAM for           G-vectors:       1.01 MB

     Dynamical RAM for          h,s,v(r/c):       0.00 MB

     Dynamical RAM for          <psi|beta>:       0.00 MB

     Dynamical RAM for                 psi:       0.09 MB

     Dynamical RAM for                hpsi:       0.09 MB

     Dynamical RAM for      wfcinit/wfcrot:       0.18 MB

     Estimated static dynamical RAM per process >      15.66 MB

     Estimated max dynamical RAM per process >      24.09 MB
     Generating pointlists ...
     new r_m :   0.2526 (alat units)  1.8332 (a.u.) for type    1

     Initial potential from superposition of free atoms

     starting charge       7.9989, renormalised to       8.0000
     Starting wfcs are    8 randomized atomic wfcs

     total cpu time spent up to now is        0.8 secs

     Self-consistent Calculation

     iteration #  1     ecut=    30.00 Ry     beta= 0.40
     Davidson diagonalization with overlap

---- Real-time Memory Report at c_bands before calling an iterative solver
            43 MiB given to the printing process from OS
             0 MiB allocation reported by mallinfo(arena+hblkhd)
          5445 MiB available memory on the node where the printing process lives
------------------
     ethr =  1.00E-02,  avg # of iterations =  2.0

     Threshold (ethr) on eigenvalues was too large:
     Diagonalizing with lowered threshold

     Davidson diagonalization with overlap

---- Real-time Memory Report at c_bands before calling an iterative solver
            44 MiB given to the printing process from OS
             0 MiB allocation reported by mallinfo(arena+hblkhd)
          5444 MiB available memory on the node where the printing process lives
------------------
     ethr =  5.93E-04,  avg # of iterations =  2.0

     total cpu time spent up to now is        1.7 secs

     total energy              =     -17.05330774 Ry
     estimated scf accuracy    <       0.05602719 Ry

     total magnetization       =     0.00 Bohr mag/cell
     absolute magnetization    =     0.00 Bohr mag/cell

     iteration #  2     ecut=    30.00 Ry     beta= 0.40
     Davidson diagonalization with overlap

---- Real-time Memory Report at c_bands before calling an iterative solver
            47 MiB given to the printing process from OS
             0 MiB allocation reported by mallinfo(arena+hblkhd)
          5441 MiB available memory on the node where the printing process lives
------------------
     ethr =  7.00E-04,  avg # of iterations =  1.0

     total cpu time spent up to now is        2.1 secs

     total energy              =     -17.04833533 Ry
     estimated scf accuracy    <       0.01702323 Ry

     total magnetization       =    -0.00 Bohr mag/cell
     absolute magnetization    =     0.00 Bohr mag/cell

     iteration #  3     ecut=    30.00 Ry     beta= 0.40
     Davidson diagonalization with overlap

---- Real-time Memory Report at c_bands before calling an iterative solver
            47 MiB given to the printing process from OS
             0 MiB allocation reported by mallinfo(arena+hblkhd)
          5441 MiB available memory on the node where the printing process lives
------------------
     ethr =  2.13E-04,  avg # of iterations =  2.0

     total cpu time spent up to now is        2.6 secs

     total energy              =     -17.05027145 Ry
     estimated scf accuracy    <       0.00039626 Ry

     total magnetization       =     0.00 Bohr mag/cell
     absolute magnetization    =     0.00 Bohr mag/cell

     iteration #  4     ecut=    30.00 Ry     beta= 0.40
     Davidson diagonalization with overlap

---- Real-time Memory Report at c_bands before calling an iterative solver
            48 MiB given to the printing process from OS
             0 MiB allocation reported by mallinfo(arena+hblkhd)
          5438 MiB available memory on the node where the printing process lives
------------------
     ethr =  4.95E-06,  avg # of iterations =  3.2

     total cpu time spent up to now is        3.1 secs

     total energy              =     -17.05027165 Ry
     estimated scf accuracy    <       0.00055789 Ry

     total magnetization       =    -0.00 Bohr mag/cell
     absolute magnetization    =     0.00 Bohr mag/cell

     iteration #  5     ecut=    30.00 Ry     beta= 0.40
     Davidson diagonalization with overlap

---- Real-time Memory Report at c_bands before calling an iterative solver
            48 MiB given to the printing process from OS
             0 MiB allocation reported by mallinfo(arena+hblkhd)
          5438 MiB available memory on the node where the printing process lives
------------------
     ethr =  4.95E-06,  avg # of iterations =  2.0

     total cpu time spent up to now is        3.6 secs

     total energy              =     -17.05033682 Ry
     estimated scf accuracy    <       0.00000078 Ry

     total magnetization       =    -0.00 Bohr mag/cell
     absolute magnetization    =     0.00 Bohr mag/cell

     iteration #  6     ecut=    30.00 Ry     beta= 0.40
     Davidson diagonalization with overlap

---- Real-time Memory Report at c_bands before calling an iterative solver
            48 MiB given to the printing process from OS
             0 MiB allocation reported by mallinfo(arena+hblkhd)
          5438 MiB available memory on the node where the printing process lives
------------------
     ethr =  9.79E-09,  avg # of iterations =  7.9

     total cpu time spent up to now is        4.6 secs

     total energy              =     -17.05034463 Ry
     estimated scf accuracy    <       0.00000427 Ry

     total magnetization       =    -0.00 Bohr mag/cell
     absolute magnetization    =     0.00 Bohr mag/cell

     iteration #  7     ecut=    30.00 Ry     beta= 0.40
     Davidson diagonalization with overlap

---- Real-time Memory Report at c_bands before calling an iterative solver
            49 MiB given to the printing process from OS
             0 MiB allocation reported by mallinfo(arena+hblkhd)
          5438 MiB available memory on the node where the printing process lives
------------------
     ethr =  9.79E-09,  avg # of iterations =  2.0

     total cpu time spent up to now is        5.1 secs

     total energy              =     -17.05035538 Ry
     estimated scf accuracy    <       0.00000120 Ry

     total magnetization       =    -0.00 Bohr mag/cell
     absolute magnetization    =     0.00 Bohr mag/cell

     iteration #  8     ecut=    30.00 Ry     beta= 0.40
     Davidson diagonalization with overlap

---- Real-time Memory Report at c_bands before calling an iterative solver
            49 MiB given to the printing process from OS
             0 MiB allocation reported by mallinfo(arena+hblkhd)
          5437 MiB available memory on the node where the printing process lives
------------------
     ethr =  9.79E-09,  avg # of iterations =  5.1

     total cpu time spent up to now is        5.9 secs

     total energy              =     -17.05034555 Ry
     estimated scf accuracy    <       0.00004521 Ry

     total magnetization       =    -0.00 Bohr mag/cell
     absolute magnetization    =     0.00 Bohr mag/cell

     iteration #  9     ecut=    30.00 Ry     beta= 0.40
     Davidson diagonalization with overlap

---- Real-time Memory Report at c_bands before calling an iterative solver
            49 MiB given to the printing process from OS
             0 MiB allocation reported by mallinfo(arena+hblkhd)
          5437 MiB available memory on the node where the printing process lives
------------------
     ethr =  9.79E-09,  avg # of iterations =  3.3

     total cpu time spent up to now is        6.6 secs

     total energy              =     -17.05034363 Ry
     estimated scf accuracy    <       0.00000757 Ry

     total magnetization       =     0.00 Bohr mag/cell
     absolute magnetization    =     0.00 Bohr mag/cell

     iteration # 10     ecut=    30.00 Ry     beta= 0.40
     Davidson diagonalization with overlap

---- Real-time Memory Report at c_bands before calling an iterative solver
            50 MiB given to the printing process from OS
             0 MiB allocation reported by mallinfo(arena+hblkhd)
          5437 MiB available memory on the node where the printing process lives
------------------
     ethr =  9.79E-09,  avg # of iterations =  3.0

     total cpu time spent up to now is        7.2 secs

     total energy              =     -17.05034440 Ry
     estimated scf accuracy    <       0.00000010 Ry

     total magnetization       =     0.00 Bohr mag/cell
     absolute magnetization    =     0.00 Bohr mag/cell

     iteration # 11     ecut=    30.00 Ry     beta= 0.40
     Davidson diagonalization with overlap

---- Real-time Memory Report at c_bands before calling an iterative solver
            50 MiB given to the printing process from OS
             0 MiB allocation reported by mallinfo(arena+hblkhd)
          5436 MiB available memory on the node where the printing process lives
------------------
     ethr =  1.27E-09,  avg # of iterations =  2.2

     total cpu time spent up to now is        8.3 secs

     total energy              =     -17.05034441 Ry
     estimated scf accuracy    <       0.00000013 Ry

     total magnetization       =    -0.00 Bohr mag/cell
     absolute magnetization    =     0.00 Bohr mag/cell

     iteration # 12     ecut=    30.00 Ry     beta= 0.40
     Davidson diagonalization with overlap

---- Real-time Memory Report at c_bands before calling an iterative solver
            50 MiB given to the printing process from OS
             0 MiB allocation reported by mallinfo(arena+hblkhd)
          5436 MiB available memory on the node where the printing process lives
------------------
     ethr =  1.27E-09,  avg # of iterations =  1.0

     total cpu time spent up to now is        9.0 secs

     total energy              =     -17.05034442 Ry
     estimated scf accuracy    <       0.00000012 Ry

     total magnetization       =    -0.00 Bohr mag/cell
     absolute magnetization    =     0.00 Bohr mag/cell

     iteration # 13     ecut=    30.00 Ry     beta= 0.40
     Davidson diagonalization with overlap

---- Real-time Memory Report at c_bands before calling an iterative solver
            50 MiB given to the printing process from OS
             0 MiB allocation reported by mallinfo(arena+hblkhd)
          5436 MiB available memory on the node where the printing process lives
------------------
     ethr =  1.27E-09,  avg # of iterations =  1.0

     total cpu time spent up to now is        9.8 secs

     total energy              =     -17.05034441 Ry
     estimated scf accuracy    <       0.00000012 Ry

     total magnetization       =    -0.00 Bohr mag/cell
     absolute magnetization    =     0.00 Bohr mag/cell

     iteration # 14     ecut=    30.00 Ry     beta= 0.40
     Davidson diagonalization with overlap

---- Real-time Memory Report at c_bands before calling an iterative solver
            50 MiB given to the printing process from OS
             0 MiB allocation reported by mallinfo(arena+hblkhd)
          5386 MiB available memory on the node where the printing process lives
------------------
     ethr =  1.27E-09,  avg # of iterations =  1.0

     total cpu time spent up to now is       10.3 secs

     total energy              =     -17.05034436 Ry
     estimated scf accuracy    <       0.00000010 Ry

     total magnetization       =    -0.00 Bohr mag/cell
     absolute magnetization    =     0.00 Bohr mag/cell

     iteration # 15     ecut=    30.00 Ry     beta= 0.40
     Davidson diagonalization with overlap

---- Real-time Memory Report at c_bands before calling an iterative solver
            50 MiB given to the printing process from OS
             0 MiB allocation reported by mallinfo(arena+hblkhd)
          5371 MiB available memory on the node where the printing process lives
------------------
     ethr =  1.22E-09,  avg # of iterations =  1.9

     total cpu time spent up to now is       10.9 secs

     total energy              =     -17.05034437 Ry
     estimated scf accuracy    <          6.1E-10 Ry

     total magnetization       =     0.00 Bohr mag/cell
     absolute magnetization    =     0.00 Bohr mag/cell

     iteration # 16     ecut=    30.00 Ry     beta= 0.40
     Davidson diagonalization with overlap

---- Real-time Memory Report at c_bands before calling an iterative solver
            50 MiB given to the printing process from OS
             0 MiB allocation reported by mallinfo(arena+hblkhd)
          5365 MiB available memory on the node where the printing process lives
------------------
     ethr =  7.66E-12,  avg # of iterations =  6.1

     Magnetic moment per site  (integrated on atomic sphere of radius R)
     atom   1 (R=0.253)  charge=  1.8393  magn= -0.0000
     atom   2 (R=0.253)  charge=  1.8393  magn= -0.0000

     total cpu time spent up to now is       11.8 secs

     End of self-consistent calculation

 ------ SPIN UP ------------


          k = 0.0000 0.0000 0.0000 (   749 PWs)   bands (ev):

    -5.9260   6.0341   6.0341   6.0341

     occupation numbers 
     1.0000   1.0000   1.0000   1.0000

          k =-0.0643 0.0643 0.0643 (   737 PWs)   bands (ev):

    -5.8179   5.0339   5.8662   5.8662

     occupation numbers 
     1.0000   1.0000   1.0000   1.0000

          k =-0.1286 0.1286 0.1286 (   760 PWs)   bands (ev):

    -5.4975   3.3485   5.5250   5.5250

     occupation numbers 
     1.0000   1.0000   1.0000   1.0000

          k =-0.1928 0.1928 0.1928 (   757 PWs)   bands (ev):

    -4.9811   1.6860   5.2019   5.2019

     occupation numbers 
     1.0000   1.0000   1.0000   1.0000

          k =-0.2571 0.2571 0.2571 (   763 PWs)   bands (ev):

    -4.3193   0.2275   4.9710   4.9710

     occupation numbers 
     1.0000   1.0000   1.0000   1.0000

          k =-0.3214 0.3214 0.3214 (   763 PWs)   bands (ev):

    -3.7051  -0.7923   4.8535   4.8535

     occupation numbers 
     1.0000   1.0000   1.0000   1.0000

          k = 0.0000 0.0000 0.1286 (   745 PWs)   bands (ev):

    -5.7816   5.2134   5.5377   5.5377

     occupation numbers 
     1.0000   1.0000   1.0000   1.0000

          k =-0.0643 0.0643 0.1928 (   753 PWs)   bands (ev):

    -5.5312   3.8497   5.1397   5.3197

     occupation numbers 
     1.0000   1.0000   1.0000   1.0000

          k =-0.1286 0.1286 0.2571 (   751 PWs)   bands (ev):

    -5.0777   2.2250   4.8209   4.9432

     occupation numbers 
     1.0000   1.0000   1.0000   1.0000

          k =-0.1928 0.1928 0.3214 (   760 PWs)   bands (ev):

    -4.4548   0.7137   4.5596   4.6350

     occupation numbers 
     1.0000   1.0000   1.0000   1.0000

          k =-0.2571 0.2571 0.3857 (   750 PWs)   bands (ev):

    -3.7821  -0.4833   4.2606   4.5959

     occupation numbers 
     1.0000   1.0000   1.0000   1.0000

          k = 0.3857-0.3857-0.2571 (   752 PWs)   bands (ev):

    -3.5098  -0.8875   4.0821   4.6987

     occupation numbers 
     1.0000   1.0000   1.0000   1.0000

          k = 0.3214-0.3214-0.1928 (   758 PWs)   bands (ev):

    -3.9969  -0.1343   4.0450   4.9271

     occupation numbers 
     1.0000   1.0000   1.0000   1.0000

          k = 0.2571-0.2571-0.1286 (   756 PWs)   bands (ev):

    -4.6787   1.1975   4.1658   5.2521

     occupation numbers 
     1.0000   1.0000   1.0000   1.0000

          k = 0.1928-0.1928-0.0643 (   754 PWs)   bands (ev):

    -5.2512   2.7516   4.4630   5.6171

     occupation numbers 
     1.0000   1.0000   1.0000   1.0000

          k = 0.1286-0.1286-0.0000 (   751 PWs)   bands (ev):

    -5.6387   4.2264   5.0319   5.8923

     occupation numbers 
     1.0000   1.0000   1.0000   1.0000

          k = 0.0000 0.0000 0.2571 (   745 PWs)   bands (ev):

    -5.3510   3.7084   4.7042   4.7042

     occupation numbers 
     1.0000   1.0000   1.0000   1.0000

          k =-0.0643 0.0643 0.3214 (   746 PWs)   bands (ev):

    -4.9639   2.5487   4.2795   4.3607

     occupation numbers 
     1.0000   1.0000   1.0000   1.0000

          k =-0.1286 0.1286 0.3857 (   751 PWs)   bands (ev):

    -4.3922   1.1732   3.7403   4.1645

     occupation numbers 
     1.0000   1.0000   1.0000   1.0000

          k =-0.1928 0.1928 0.4500 (   754 PWs)   bands (ev):

    -3.7099  -0.0689   3.2602   4.1332

     occupation numbers 
     1.0000   1.0000   1.0000   1.0000

          k = 0.4500-0.4500-0.1928 (   751 PWs)   bands (ev):

    -3.2233  -0.7835   2.9224   4.2656

     occupation numbers 
     1.0000   1.0000   1.0000   1.0000

          k = 0.3857-0.3857-0.1286 (   757 PWs)   bands (ev):

    -3.5109  -0.3692   2.7673   4.5452

     occupation numbers 
     1.0000   1.0000   1.0000   1.0000

          k = 0.3214-0.3214-0.0643 (   749 PWs)   bands (ev):

    -4.1855   0.7529   2.8471   4.9343

     occupation numbers 
     1.0000   1.0000   1.0000   1.0000

          k = 0.2571-0.2571 0.0000 (   758 PWs)   bands (ev):

    -4.8032   1.9476   3.3316   5.3499

     occupation numbers 
     1.0000   1.0000   1.0000   1.0000

          k = 0.0000 0.0000 0.3857 (   745 PWs)   bands (ev):

    -4.6428   2.0906   3.9820   3.9820

     occupation numbers 
     1.0000   1.0000   1.0000   1.0000

          k =-0.0643 0.0643 0.4500 (   749 PWs)   bands (ev):

    -4.1290   1.1369   3.4348   3.7504

     occupation numbers 
     1.0000   1.0000   1.0000   1.0000

          k =-0.1286 0.1286 0.5143 (   757 PWs)   bands (ev):

    -3.4682   0.1066   2.6964   3.6896

     occupation numbers 
     1.0000   1.0000   1.0000   1.0000

          k = 0.5143-0.5143-0.1286 (   748 PWs)   bands (ev):

    -2.8503  -0.6995   2.1175   3.8031

     occupation numbers 
     1.0000   1.0000   1.0000   1.0000

          k = 0.4500-0.4500-0.0643 (   746 PWs)   bands (ev):

    -2.9057  -0.6203   1.8288   4.0789

     occupation numbers 
     1.0000   1.0000   1.0000   1.0000

          k = 0.3857-0.3857 0.0000 (   754 PWs)   bands (ev):

    -3.5432   0.1417   1.9896   4.4831

     occupation numbers 
     1.0000   1.0000   1.0000   1.0000

          k = 0.0000 0.0000 0.5143 (   753 PWs)   bands (ev):

    -3.6728   0.4763   3.4751   3.4751

     occupation numbers 
     1.0000   1.0000   1.0000   1.0000

          k =-0.0643 0.0643 0.5785 (   754 PWs)   bands (ev):

    -3.0504  -0.3370   2.9283   3.3701

     occupation numbers 
     1.0000   1.0000   1.0000   1.0000

          k = 0.5785-0.5785-0.0643 (   750 PWs)   bands (ev):

    -2.3737  -1.0536   2.1351   3.4438

     occupation numbers 
     1.0000   1.0000   1.0000   1.0000

          k = 0.5143-0.5143 0.0000 (   740 PWs)   bands (ev):

    -2.3054  -1.0883   1.6424   3.6890

     occupation numbers 
     1.0000   1.0000   1.0000   1.0000

          k = 0.0000 0.0000 0.6428 (   745 PWs)   bands (ev):

    -2.4670  -1.0653   3.2162   3.2162

     occupation numbers 
     1.0000   1.0000   1.0000   1.0000

          k = 0.6428-0.6428-0.0000 (   744 PWs)   bands (ev):

    -1.8200  -1.7096   2.7616   3.2415

     occupation numbers 
     1.0000   1.0000   1.0000   1.0000

          k = 0.0000 0.1286 0.2571 (   758 PWs)   bands (ev):

    -5.2129   2.9914   4.1862   5.2098

     occupation numbers 
     1.0000   1.0000   1.0000   1.0000

          k =-0.0643 0.1928 0.3214 (   753 PWs)   bands (ev):

    -4.6995   1.6694   3.6199   4.8893

     occupation numbers 
     1.0000   1.0000   1.0000   1.0000

          k =-0.1286 0.2571 0.3857 (   756 PWs)   bands (ev):

    -4.0394   0.3220   3.3627   4.5442

     occupation numbers 
     1.0000   1.0000   1.0000   1.0000

          k = 0.5143-0.3857-0.2571 (   750 PWs)   bands (ev):

    -3.4210  -0.6644   3.2633   4.3330

     occupation numbers 
     1.0000   1.0000   1.0000   1.0000

          k = 0.0000 0.1286 0.3857 (   746 PWs)   bands (ev):

    -4.5144   1.7059   3.4679   4.1971

     occupation numbers 
     1.0000   1.0000   1.0000   1.0000

          k =-0.0643 0.1928 0.4500 (   757 PWs)   bands (ev):

    -3.8957   0.6248   2.8866   3.8800

     occupation numbers 
     1.0000   1.0000   1.0000   1.0000

          k = 0.5785-0.4500-0.1928 (   742 PWs)   bands (ev):

    -3.2198  -0.3891   2.4984   3.7235

     occupation numbers 
     1.0000   1.0000   1.0000   1.0000

          k = 0.5143-0.3857-0.1286 (   744 PWs)   bands (ev):

    -2.9504  -0.7415   2.2664   3.8138

     occupation numbers 
     1.0000   1.0000   1.0000   1.0000

          k = 0.4500-0.3214-0.0643 (   754 PWs)   bands (ev):

    -3.4602  -0.0473   2.2538   4.1114

     occupation numbers 
     1.0000   1.0000   1.0000   1.0000

          k = 0.3857-0.2571 0.0000 (   754 PWs)   bands (ev):

    -4.1379   0.9370   2.6325   4.5294

     occupation numbers 
     1.0000   1.0000   1.0000   1.0000

          k = 0.0000 0.1286 0.5143 (   751 PWs)   bands (ev):

    -3.5629   0.3399   2.9914   3.3894

     occupation numbers 
     1.0000   1.0000   1.0000   1.0000

          k = 0.6428-0.5143-0.1286 (   748 PWs)   bands (ev):

    -2.8805  -0.4820   2.3375   3.2084

     occupation numbers 
     1.0000   1.0000   1.0000   1.0000

          k = 0.5785-0.4500-0.0643 (   746 PWs)   bands (ev):

    -2.4073  -0.9834   1.8086   3.3254

     occupation numbers 
     1.0000   1.0000   1.0000   1.0000

          k = 0.5143-0.3857 0.0000 (   744 PWs)   bands (ev):

    -2.7947  -0.5828   1.7026   3.6510

     occupation numbers 
     1.0000   1.0000   1.0000   1.0000

          k = 0.7071-0.5785-0.0643 (   749 PWs)   bands (ev):

    -2.3925  -1.0614   2.8002   2.9238

     occupation numbers 
     1.0000   1.0000   1.0000   1.0000

          k = 0.6428-0.5143 0.0000 (   745 PWs)   bands (ev):

    -1.8838  -1.5091   2.1259   2.9961

     occupation numbers 
     1.0000   1.0000   1.0000   1.0000

          k = 0.7071-0.4500-0.1928 (   746 PWs)   bands (ev):

    -3.2504  -0.0546   2.2211   3.4066

     occupation numbers 
     1.0000   1.0000   1.0000   1.0000

          k = 0.6428-0.3857-0.1286 (   742 PWs)   bands (ev):

    -2.6126  -0.7566   1.9378   3.0824

     occupation numbers 
     1.0000   1.0000   1.0000   1.0000

          k = 0.7071-0.4500-0.0643 (   750 PWs)   bands (ev):

    -2.2039  -1.1030   2.1712   2.5576

     occupation numbers 
     1.0000   1.0000   1.0000   1.0000

          k = 0.6428-0.3857 0.0000 (   748 PWs)   bands (ev):

    -2.0019  -1.2684   1.8864   2.5943

     occupation numbers 
     1.0000   1.0000   1.0000   1.0000

 ------ SPIN DOWN ----------


          k = 0.0000 0.0000 0.0000 (   749 PWs)   bands (ev):

    -5.9260   6.0341   6.0341   6.0341

     occupation numbers 
     1.0000   1.0000   1.0000   1.0000

          k =-0.0643 0.0643 0.0643 (   737 PWs)   bands (ev):

    -5.8179   5.0339   5.8662   5.8662

     occupation numbers 
     1.0000   1.0000   1.0000   1.0000

          k =-0.1286 0.1286 0.1286 (   760 PWs)   bands (ev):

    -5.4975   3.3485   5.5250   5.5250

     occupation numbers 
     1.0000   1.0000   1.0000   1.0000

          k =-0.1928 0.1928 0.1928 (   757 PWs)   bands (ev):

    -4.9811   1.6860   5.2019   5.2019

     occupation numbers 
     1.0000   1.0000   1.0000   1.0000

          k =-0.2571 0.2571 0.2571 (   763 PWs)   bands (ev):

    -4.3193   0.2275   4.9710   4.9710

     occupation numbers 
     1.0000   1.0000   1.0000   1.0000

          k =-0.3214 0.3214 0.3214 (   763 PWs)   bands (ev):

    -3.7051  -0.7923   4.8535   4.8535

     occupation numbers 
     1.0000   1.0000   1.0000   1.0000

          k = 0.0000 0.0000 0.1286 (   745 PWs)   bands (ev):

    -5.7816   5.2134   5.5377   5.5377

     occupation numbers 
     1.0000   1.0000   1.0000   1.0000

          k =-0.0643 0.0643 0.1928 (   753 PWs)   bands (ev):

    -5.5312   3.8497   5.1397   5.3197

     occupation numbers 
     1.0000   1.0000   1.0000   1.0000

          k =-0.1286 0.1286 0.2571 (   751 PWs)   bands (ev):

    -5.0777   2.2250   4.8209   4.9432

     occupation numbers 
     1.0000   1.0000   1.0000   1.0000

          k =-0.1928 0.1928 0.3214 (   760 PWs)   bands (ev):

    -4.4548   0.7137   4.5596   4.6350

     occupation numbers 
     1.0000   1.0000   1.0000   1.0000

          k =-0.2571 0.2571 0.3857 (   750 PWs)   bands (ev):

    -3.7821  -0.4833   4.2606   4.5959

     occupation numbers 
     1.0000   1.0000   1.0000   1.0000

          k = 0.3857-0.3857-0.2571 (   752 PWs)   bands (ev):

    -3.5098  -0.8875   4.0821   4.6987

     occupation numbers 
     1.0000   1.0000   1.0000   1.0000

          k = 0.3214-0.3214-0.1928 (   758 PWs)   bands (ev):

    -3.9969  -0.1343   4.0450   4.9271

     occupation numbers 
     1.0000   1.0000   1.0000   1.0000

          k = 0.2571-0.2571-0.1286 (   756 PWs)   bands (ev):

    -4.6787   1.1975   4.1658   5.2521

     occupation numbers 
     1.0000   1.0000   1.0000   1.0000

          k = 0.1928-0.1928-0.0643 (   754 PWs)   bands (ev):

    -5.2512   2.7516   4.4630   5.6171

     occupation numbers 
     1.0000   1.0000   1.0000   1.0000

          k = 0.1286-0.1286-0.0000 (   751 PWs)   bands (ev):

    -5.6387   4.2264   5.0319   5.8923

     occupation numbers 
     1.0000   1.0000   1.0000   1.0000

          k = 0.0000 0.0000 0.2571 (   745 PWs)   bands (ev):

    -5.3510   3.7084   4.7042   4.7042

     occupation numbers 
     1.0000   1.0000   1.0000   1.0000

          k =-0.0643 0.0643 0.3214 (   746 PWs)   bands (ev):

    -4.9639   2.5487   4.2795   4.3607

     occupation numbers 
     1.0000   1.0000   1.0000   1.0000

          k =-0.1286 0.1286 0.3857 (   751 PWs)   bands (ev):

    -4.3922   1.1732   3.7403   4.1645

     occupation numbers 
     1.0000   1.0000   1.0000   1.0000

          k =-0.1928 0.1928 0.4500 (   754 PWs)   bands (ev):

    -3.7099  -0.0689   3.2602   4.1332

     occupation numbers 
     1.0000   1.0000   1.0000   1.0000

          k = 0.4500-0.4500-0.1928 (   751 PWs)   bands (ev):

    -3.2233  -0.7835   2.9224   4.2656

     occupation numbers 
     1.0000   1.0000   1.0000   1.0000

          k = 0.3857-0.3857-0.1286 (   757 PWs)   bands (ev):

    -3.5109  -0.3692   2.7673   4.5452

     occupation numbers 
     1.0000   1.0000   1.0000   1.0000

          k = 0.3214-0.3214-0.0643 (   749 PWs)   bands (ev):

    -4.1855   0.7529   2.8471   4.9343

     occupation numbers 
     1.0000   1.0000   1.0000   1.0000

          k = 0.2571-0.2571 0.0000 (   758 PWs)   bands (ev):

    -4.8032   1.9476   3.3316   5.3499

     occupation numbers 
     1.0000   1.0000   1.0000   1.0000

          k = 0.0000 0.0000 0.3857 (   745 PWs)   bands (ev):

    -4.6428   2.0906   3.9820   3.9820

     occupation numbers 
     1.0000   1.0000   1.0000   1.0000

          k =-0.0643 0.0643 0.4500 (   749 PWs)   bands (ev):

    -4.1290   1.1369   3.4348   3.7504

     occupation numbers 
     1.0000   1.0000   1.0000   1.0000

          k =-0.1286 0.1286 0.5143 (   757 PWs)   bands (ev):

    -3.4682   0.1066   2.6964   3.6896

     occupation numbers 
     1.0000   1.0000   1.0000   1.0000

          k = 0.5143-0.5143-0.1286 (   748 PWs)   bands (ev):

    -2.8503  -0.6995   2.1175   3.8031

     occupation numbers 
     1.0000   1.0000   1.0000   1.0000

          k = 0.4500-0.4500-0.0643 (   746 PWs)   bands (ev):

    -2.9057  -0.6203   1.8288   4.0789

     occupation numbers 
     1.0000   1.0000   1.0000   1.0000

          k = 0.3857-0.3857 0.0000 (   754 PWs)   bands (ev):

    -3.5432   0.1417   1.9896   4.4831

     occupation numbers 
     1.0000   1.0000   1.0000   1.0000

          k = 0.0000 0.0000 0.5143 (   753 PWs)   bands (ev):

    -3.6728   0.4763   3.4751   3.4751

     occupation numbers 
     1.0000   1.0000   1.0000   1.0000

          k =-0.0643 0.0643 0.5785 (   754 PWs)   bands (ev):

    -3.0504  -0.3370   2.9283   3.3701

     occupation numbers 
     1.0000   1.0000   1.0000   1.0000

          k = 0.5785-0.5785-0.0643 (   750 PWs)   bands (ev):

    -2.3737  -1.0536   2.1351   3.4438

     occupation numbers 
     1.0000   1.0000   1.0000   1.0000

          k = 0.5143-0.5143 0.0000 (   740 PWs)   bands (ev):

    -2.3054  -1.0883   1.6424   3.6890

     occupation numbers 
     1.0000   1.0000   1.0000   1.0000

          k = 0.0000 0.0000 0.6428 (   745 PWs)   bands (ev):

    -2.4670  -1.0653   3.2162   3.2162

     occupation numbers 
     1.0000   1.0000   1.0000   1.0000

          k = 0.6428-0.6428-0.0000 (   744 PWs)   bands (ev):

    -1.8200  -1.7096   2.7616   3.2415

     occupation numbers 
     1.0000   1.0000   1.0000   1.0000

          k = 0.0000 0.1286 0.2571 (   758 PWs)   bands (ev):

    -5.2129   2.9914   4.1862   5.2098

     occupation numbers 
     1.0000   1.0000   1.0000   1.0000

          k =-0.0643 0.1928 0.3214 (   753 PWs)   bands (ev):

    -4.6995   1.6694   3.6199   4.8893

     occupation numbers 
     1.0000   1.0000   1.0000   1.0000

          k =-0.1286 0.2571 0.3857 (   756 PWs)   bands (ev):

    -4.0394   0.3220   3.3627   4.5442

     occupation numbers 
     1.0000   1.0000   1.0000   1.0000

          k = 0.5143-0.3857-0.2571 (   750 PWs)   bands (ev):

    -3.4210  -0.6644   3.2633   4.3330

     occupation numbers 
     1.0000   1.0000   1.0000   1.0000

          k = 0.0000 0.1286 0.3857 (   746 PWs)   bands (ev):

    -4.5144   1.7059   3.4679   4.1971

     occupation numbers 
     1.0000   1.0000   1.0000   1.0000

          k =-0.0643 0.1928 0.4500 (   757 PWs)   bands (ev):

    -3.8957   0.6248   2.8866   3.8800

     occupation numbers 
     1.0000   1.0000   1.0000   1.0000

          k = 0.5785-0.4500-0.1928 (   742 PWs)   bands (ev):

    -3.2198  -0.3891   2.4984   3.7235

     occupation numbers 
     1.0000   1.0000   1.0000   1.0000

          k = 0.5143-0.3857-0.1286 (   744 PWs)   bands (ev):

    -2.9504  -0.7415   2.2664   3.8138

     occupation numbers 
     1.0000   1.0000   1.0000   1.0000

          k = 0.4500-0.3214-0.0643 (   754 PWs)   bands (ev):

    -3.4602  -0.0473   2.2538   4.1114

     occupation numbers 
     1.0000   1.0000   1.0000   1.0000

          k = 0.3857-0.2571 0.0000 (   754 PWs)   bands (ev):

    -4.1379   0.9370   2.6325   4.5294

     occupation numbers 
     1.0000   1.0000   1.0000   1.0000

          k = 0.0000 0.1286 0.5143 (   751 PWs)   bands (ev):

    -3.5629   0.3399   2.9914   3.3894

     occupation numbers 
     1.0000   1.0000   1.0000   1.0000

          k = 0.6428-0.5143-0.1286 (   748 PWs)   bands (ev):

    -2.8805  -0.4820   2.3375   3.2084

     occupation numbers 
     1.0000   1.0000   1.0000   1.0000

          k = 0.5785-0.4500-0.0643 (   746 PWs)   bands (ev):

    -2.4073  -0.9834   1.8086   3.3254

     occupation numbers 
     1.0000   1.0000   1.0000   1.0000

          k = 0.5143-0.3857 0.0000 (   744 PWs)   bands (ev):

    -2.7947  -0.5828   1.7026   3.6510

     occupation numbers 
     1.0000   1.0000   1.0000   1.0000

          k = 0.7071-0.5785-0.0643 (   749 PWs)   bands (ev):

    -2.3925  -1.0614   2.8002   2.9238

     occupation numbers 
     1.0000   1.0000   1.0000   1.0000

          k = 0.6428-0.5143 0.0000 (   745 PWs)   bands (ev):

    -1.8838  -1.5091   2.1259   2.9961

     occupation numbers 
     1.0000   1.0000   1.0000   1.0000

          k = 0.7071-0.4500-0.1928 (   746 PWs)   bands (ev):

    -3.2504  -0.0546   2.2211   3.4066

     occupation numbers 
     1.0000   1.0000   1.0000   1.0000

          k = 0.6428-0.3857-0.1286 (   742 PWs)   bands (ev):

    -2.6126  -0.7566   1.9378   3.0824

     occupation numbers 
     1.0000   1.0000   1.0000   1.0000

          k = 0.7071-0.4500-0.0643 (   750 PWs)   bands (ev):

    -2.2039  -1.1030   2.1712   2.5576

     occupation numbers 
     1.0000   1.0000   1.0000   1.0000

          k = 0.6428-0.3857 0.0000 (   748 PWs)   bands (ev):

    -2.0019  -1.2684   1.8864   2.5943

     occupation numbers 
     1.0000   1.0000   1.0000   1.0000

     highest occupied level (ev):     6.0341

!    total energy              =     -17.05034437 Ry
     estimated scf accuracy    <          3.5E-10 Ry

     The total energy is the sum of the following terms:
     one-electron contribution =       4.84785791 Ry
     hartree contribution      =       1.09523663 Ry
     xc contribution           =      -6.19746463 Ry
     ewald contribution        =     -16.79597428 Ry

     total magnetization       =     0.00 Bohr mag/cell
     absolute magnetization    =     0.00 Bohr mag/cell

     convergence has been achieved in  16 iterations

     Forces acting on atoms (cartesian axes, Ry/au):

     atom    1 type  1   force =     0.00000000    0.00000000   -0.00000000
     atom    2 type  1   force =     0.00000000    0.00000000    0.00000000
     The non-local contrib.  to forces
     atom    1 type  1   force =     0.00000000    0.00000000    0.00000000
     atom    2 type  1   force =    -0.00000000    0.00000000   -0.00000000
     The ionic contribution  to forces
     atom    1 type  1   force =     0.00000000    0.00000000    0.00000000
     atom    2 type  1   force =    -0.00000000   -0.00000000   -0.00000000
     The local contribution  to forces
     atom    1 type  1   force =     0.00000000    0.00000000    0.00000000
     atom    2 type  1   force =    -0.00000000   -0.00000000   -0.00000000
     The core correction contribution to forces
     atom    1 type  1   force =     0.00000000   -0.00000000   -0.00000000
     atom    2 type  1   force =     0.00000000    0.00000000    0.00000000
     The Hubbard contrib.    to forces
     atom    1 type  1   force =     0.00000000    0.00000000    0.00000000
     atom    2 type  1   force =     0.00000000    0.00000000    0.00000000
     The SCF correction term to forces
     atom    1 type  1   force =    -0.00000000   -0.00000000   -0.00000000
     atom    2 type  1   force =     0.00000000   -0.00000000   -0.00000000

     Total force =     0.000000     Total SCF correction =     0.000000


     Computing stress (Cartesian axis) and pressure

          total   stress  (Ry/bohr**3)                   (kbar)     P=      -19.11
  -0.00012991  -0.00000000  -0.00000000          -19.11       -0.00       -0.00
  -0.00000000  -0.00012991  -0.00000000           -0.00      -19.11       -0.00
  -0.00000000  -0.00000000  -0.00012991           -0.00       -0.00      -19.11

     kinetic stress (kbar)   2234.06     -0.00      0.00
                               -0.00   2234.06     -0.00
                                0.00     -0.00   2234.06

     local   stress (kbar)   -419.17      0.00      0.00
                                0.00   -419.17      0.00
                                0.00      0.00   -419.17

     nonloc. stress (kbar)   1971.54     -0.00      0.00
                               -0.00   1971.54      0.00
                                0.00      0.00   1971.54

     hartree stress (kbar)    198.72      0.00      0.00
                                0.00    198.72      0.00
                                0.00      0.00    198.72

     exc-cor stress (kbar)   -149.73      0.00      0.00
                                0.00   -149.73      0.00
                                0.00      0.00   -149.73

     corecor stress (kbar)   -807.02      0.00      0.00
                                0.00   -807.02      0.00
                                0.00      0.00   -807.02

     ewald   stress (kbar)  -3047.51     -0.00      0.00
                               -0.00  -3047.51     -0.00
                                0.00     -0.00  -3047.51

     hubbard stress (kbar)      0.00      0.00      0.00
                                0.00      0.00      0.00
                                0.00      0.00      0.00

     DFT-D   stress (kbar)      0.00      0.00      0.00
                                0.00      0.00      0.00
                                0.00      0.00      0.00

     XDM     stress (kbar)      0.00      0.00      0.00
                                0.00      0.00      0.00
                                0.00      0.00      0.00

     dft-nl  stress (kbar)      0.00      0.00      0.00
                                0.00      0.00      0.00
                                0.00      0.00      0.00

     TS-vdW  stress (kbar)      0.00      0.00      0.00
                                0.00      0.00      0.00
                                0.00      0.00      0.00

     MDB     stress (kbar)      0.00      0.00      0.00
                                0.00      0.00      0.00
                                0.00      0.00      0.00

     3D-RISM stress (kbar)      0.00      0.00      0.00
                                0.00      0.00      0.00
                                0.00      0.00      0.00


     Writing all to output data dir ./out/si_lda.save/ :
     XML data file, charge density, pseudopotentials, collected wavefunctions

     init_run     :      0.75s CPU      0.75s WALL (       1 calls)
     electrons    :     10.97s CPU     11.04s WALL (       1 calls)
     forces       :      0.07s CPU      0.07s WALL (       1 calls)
     stress       :      0.45s CPU      0.45s WALL (       1 calls)

     Called by init_run:
     wfcinit      :      0.40s CPU      0.40s WALL (       1 calls)
     wfcinit:atom :      0.01s CPU      0.01s WALL (     112 calls)
     wfcinit:wfcr :      0.35s CPU      0.35s WALL (     112 calls)
     potinit      :      0.12s CPU      0.12s WALL (       1 calls)
     hinit0       :      0.21s CPU      0.21s WALL (       1 calls)

     Called by electrons:
     c_bands      :      9.44s CPU      9.52s WALL (      17 calls)
     sum_band     :      1.32s CPU      1.32s WALL (      17 calls)
     v_of_rho     :      0.12s CPU      0.12s WALL (      17 calls)
     v_h          :      0.01s CPU      0.01s WALL (      17 calls)
     v_xc         :      0.13s CPU      0.13s WALL (      19 calls)
     mix_rho      :      0.05s CPU      0.05s WALL (      17 calls)

     Called by c_bands:
     init_us_2    :      0.65s CPU      0.66s WALL (    4144 calls)
     cegterg      :      8.00s CPU      8.06s WALL (    1904 calls)

     Called by sum_band:
     sum_band:wei :      0.00s CPU      0.00s WALL (      17 calls)
     sum_band:loo :      1.27s CPU      1.27s WALL (      17 calls)
     sum_band:buf :      0.01s CPU      0.01s WALL (    1904 calls)
     sum_band:ini :      0.29s CPU      0.29s WALL (    1904 calls)

     Called by *egterg:
     cdiaghg      :      0.15s CPU      0.16s WALL (    7020 calls)
     cegterg:over :      0.20s CPU      0.20s WALL (    5228 calls)
     cegterg:upda :      0.10s CPU      0.10s WALL (    5228 calls)
     cegterg:last :      0.15s CPU      0.15s WALL (    4759 calls)
     h_psi        :      7.57s CPU      7.62s WALL (    7244 calls)
     g_psi        :      0.04s CPU      0.04s WALL (    5228 calls)

     Called by h_psi:
     h_psi:calbec :      0.66s CPU      0.67s WALL (    7244 calls)
     vloc_psi     :      6.35s CPU      6.39s WALL (    7244 calls)
     add_vuspsi   :      0.52s CPU      0.53s WALL (    7244 calls)

     General routines
     calbec       :      0.70s CPU      0.71s WALL (    7804 calls)
     fft          :      0.19s CPU      0.19s WALL (     157 calls)
     ffts         :      0.11s CPU      0.11s WALL (      68 calls)
     fftw         :      6.05s CPU      6.09s WALL (   57878 calls)
     interpolate  :      0.12s CPU      0.12s WALL (      34 calls)

     Parallel routines

     PWSCF        :     12.27s CPU     12.35s WALL


   This run was terminated on:   7:22:40  26Aug2024            

=------------------------------------------------------------------------------=
   JOB DONE.
=------------------------------------------------------------------------------=
