
     Program PWSCF v.7.3.1 starts on  3Sep2024 at 15:42: 0 

     This program is part of the open-source Quantum ESPRESSO suite
     for quantum simulation of materials; please cite
         "P. Giannozzi et al., J. Phys.:Condens. Matter 21 395502 (2009);
         "P. Giannozzi et al., J. Phys.:Condens. Matter 29 465901 (2017);
         "P. Giannozzi et al., J. Chem. Phys. 152 154105 (2020);
          URL http://www.quantum-espresso.org", 
     in publications or presentations arising from this work. More details at
     http://www.quantum-espresso.org/quote

     Parallel version (MPI), running on     1 processors

     MPI processes distributed on     1 nodes
     136 MiB available memory on the printing compute node when the environment starts

     Waiting for input...
     Reading input from standard input

     Current dimensions of program PWSCF are:
     Max number of different atomic species (ntypx) = 10
     Max number of k-points (npk) =  40000
     Max angular momentum in pseudopotentials (lmaxx) =  4
     Message from routine volume:
     axis vectors are left-handed
     Message from routine setup:
     using ibrav=0 with symmetry is DISCOURAGED, use correct ibrav instead

     Subspace diagonalization in iterative solution of the eigenvalue problem:
     a serial algorithm will be used


     G-vector sticks info
     --------------------
     sticks:   dense  smooth     PW     G-vecs:    dense   smooth      PW
     Sum        1735     859    253                47855    16889    2741

     Using Slab Decomposition



     bravais-lattice index     =            0
     lattice parameter (alat)  =       7.2571  a.u.
     unit-cell volume          =     270.2504 (a.u.)^3
     number of atoms/cell      =            2
     number of atomic types    =            1
     number of electrons       =         8.00 (up:   4.00, down:   4.00)
     number of Kohn-Sham states=            4
     kinetic-energy cutoff     =      60.0000  Ry
     charge density cutoff     =     480.0000  Ry
     scf convergence threshold =      4.0E-10
     mixing beta               =       0.4000
     number of iterations used =            8  plain     mixing
     Exchange-correlation= SLA  PW   NOGX NOGC
                           (   1   4   0   0   0   0   0)

     celldm(1)=   7.257056  celldm(2)=   0.000000  celldm(3)=   0.000000
     celldm(4)=   0.000000  celldm(5)=   0.000000  celldm(6)=   0.000000

     crystal axes: (cart. coord. in units of alat)
               a(1) = (   0.707107   0.707107   0.000000 )  
               a(2) = (   0.707107   0.000000   0.707107 )  
               a(3) = (   0.000000   0.707107   0.707107 )  

     reciprocal axes: (cart. coord. in units 2 pi/alat)
               b(1) = (  0.707107  0.707107 -0.707107 )  
               b(2) = (  0.707107 -0.707107  0.707107 )  
               b(3) = ( -0.707107  0.707107  0.707107 )  


     PseudoPot. # 1 for Si read from file:
     ./pseudo/Si_lda.upf
     MD5 check sum: 9e2d726316af3d4752eea8ab0afbb951
     Pseudo is Norm-conserving + core correction, Zval =  4.0
     Generated using ONCVPSP code by D. R. Hamann
     Using radial grid of 1510 points,  6 beta functions with: 
                l(1) =   0
                l(2) =   0
                l(3) =   1
                l(4) =   1
                l(5) =   2
                l(6) =   2

     atomic species   valence    mass     pseudopotential
     Si                4.00    28.08550     Si( 1.00)

     Starting magnetic structure 
     atomic species   magnetization
     Si              0.000

     48 Sym. Ops., with inversion, found (24 have fractional translation)


                                    s                        frac. trans.

      isym =  1     identity                                     

 cryst.   s( 1) = (     1          0          0      )
                  (     0          1          0      )
                  (     0          0          1      )

 cart.    s( 1) = (  1.0000000  0.0000000  0.0000000 )
                  (  0.0000000  1.0000000  0.0000000 )
                  (  0.0000000  0.0000000  1.0000000 )


      isym =  2     180 deg rotation - cart. axis [0,0,1]        

 cryst.   s( 2) = (    -1          0          0      )
                  (    -1          0          1      )
                  (    -1          1          0      )

 cart.    s( 2) = ( -1.0000000  0.0000000  0.0000000 )
                  (  0.0000000 -1.0000000  0.0000000 )
                  (  0.0000000  0.0000000  1.0000000 )


      isym =  3     180 deg rotation - cart. axis [0,1,0]        

 cryst.   s( 3) = (     0         -1          1      )
                  (     0         -1          0      )
                  (     1         -1          0      )

 cart.    s( 3) = ( -1.0000000  0.0000000  0.0000000 )
                  (  0.0000000  1.0000000  0.0000000 )
                  (  0.0000000  0.0000000 -1.0000000 )


      isym =  4     180 deg rotation - cart. axis [1,0,0]        

 cryst.   s( 4) = (     0          1         -1      )
                  (     1          0         -1      )
                  (     0          0         -1      )

 cart.    s( 4) = (  1.0000000  0.0000000  0.0000000 )
                  (  0.0000000 -1.0000000  0.0000000 )
                  (  0.0000000  0.0000000 -1.0000000 )


      isym =  5     180 deg rotation - cart. axis [1,1,0]        

 cryst.   s( 5) = (     1          0          0      )    f =( -0.2500000 )
                  (     1         -1          0      )       ( -0.2500000 )
                  (     1          0         -1      )       ( -0.2500000 )

 cart.    s( 5) = (  0.0000000  1.0000000  0.0000000 )    f =( -0.3535534 )
                  (  1.0000000  0.0000000  0.0000000 )       ( -0.3535534 )
                  (  0.0000000  0.0000000 -1.0000000 )       ( -0.3535534 )


      isym =  6     180 deg rotation - cart. axis [1,-1,0]       

 cryst.   s( 6) = (    -1          0          0      )    f =( -0.2500000 )
                  (     0          0         -1      )       ( -0.2500000 )
                  (     0         -1          0      )       ( -0.2500000 )

 cart.    s( 6) = (  0.0000000 -1.0000000  0.0000000 )    f =( -0.3535534 )
                  ( -1.0000000  0.0000000  0.0000000 )       ( -0.3535534 )
                  (  0.0000000  0.0000000 -1.0000000 )       ( -0.3535534 )


      isym =  7      90 deg rotation - cart. axis [0,0,-1]       

 cryst.   s( 7) = (     0          1         -1      )    f =( -0.2500000 )
                  (    -1          1          0      )       ( -0.2500000 )
                  (     0          1          0      )       ( -0.2500000 )

 cart.    s( 7) = (  0.0000000  1.0000000  0.0000000 )    f =( -0.3535534 )
                  ( -1.0000000  0.0000000  0.0000000 )       ( -0.3535534 )
                  (  0.0000000  0.0000000  1.0000000 )       ( -0.3535534 )


      isym =  8      90 deg rotation - cart. axis [0,0,1]        

 cryst.   s( 8) = (     0         -1          1      )    f =( -0.2500000 )
                  (     0          0          1      )       ( -0.2500000 )
                  (    -1          0          1      )       ( -0.2500000 )

 cart.    s( 8) = (  0.0000000 -1.0000000  0.0000000 )    f =( -0.3535534 )
                  (  1.0000000  0.0000000  0.0000000 )       ( -0.3535534 )
                  (  0.0000000  0.0000000  1.0000000 )       ( -0.3535534 )


      isym =  9     180 deg rotation - cart. axis [1,0,1]        

 cryst.   s( 9) = (    -1          1          0      )    f =( -0.2500000 )
                  (     0          1          0      )       ( -0.2500000 )
                  (     0          1         -1      )       ( -0.2500000 )

 cart.    s( 9) = (  0.0000000  0.0000000  1.0000000 )    f =( -0.3535534 )
                  (  0.0000000 -1.0000000  0.0000000 )       ( -0.3535534 )
                  (  1.0000000  0.0000000  0.0000000 )       ( -0.3535534 )


      isym = 10     180 deg rotation - cart. axis [-1,0,1]       

 cryst.   s(10) = (     0          0         -1      )    f =( -0.2500000 )
                  (     0         -1          0      )       ( -0.2500000 )
                  (    -1          0          0      )       ( -0.2500000 )

 cart.    s(10) = (  0.0000000  0.0000000 -1.0000000 )    f =( -0.3535534 )
                  (  0.0000000 -1.0000000  0.0000000 )       ( -0.3535534 )
                  ( -1.0000000  0.0000000  0.0000000 )       ( -0.3535534 )


      isym = 11      90 deg rotation - cart. axis [0,1,0]        

 cryst.   s(11) = (     1         -1          0      )    f =( -0.2500000 )
                  (     1          0         -1      )       ( -0.2500000 )
                  (     1          0          0      )       ( -0.2500000 )

 cart.    s(11) = (  0.0000000  0.0000000  1.0000000 )    f =( -0.3535534 )
                  (  0.0000000  1.0000000  0.0000000 )       ( -0.3535534 )
                  ( -1.0000000  0.0000000  0.0000000 )       ( -0.3535534 )


      isym = 12      90 deg rotation - cart. axis [0,-1,0]       

 cryst.   s(12) = (     0          0          1      )    f =( -0.2500000 )
                  (    -1          0          1      )       ( -0.2500000 )
                  (     0         -1          1      )       ( -0.2500000 )

 cart.    s(12) = (  0.0000000  0.0000000 -1.0000000 )    f =( -0.3535534 )
                  (  0.0000000  1.0000000  0.0000000 )       ( -0.3535534 )
                  (  1.0000000  0.0000000  0.0000000 )       ( -0.3535534 )


      isym = 13     180 deg rotation - cart. axis [0,1,1]        

 cryst.   s(13) = (    -1          0          1      )    f =( -0.2500000 )
                  (     0         -1          1      )       ( -0.2500000 )
                  (     0          0          1      )       ( -0.2500000 )

 cart.    s(13) = ( -1.0000000  0.0000000  0.0000000 )    f =( -0.3535534 )
                  (  0.0000000  0.0000000  1.0000000 )       ( -0.3535534 )
                  (  0.0000000  1.0000000  0.0000000 )       ( -0.3535534 )


      isym = 14     180 deg rotation - cart. axis [0,1,-1]       

 cryst.   s(14) = (     0         -1          0      )    f =( -0.2500000 )
                  (    -1          0          0      )       ( -0.2500000 )
                  (     0          0         -1      )       ( -0.2500000 )

 cart.    s(14) = ( -1.0000000  0.0000000  0.0000000 )    f =( -0.3535534 )
                  (  0.0000000  0.0000000 -1.0000000 )       ( -0.3535534 )
                  (  0.0000000 -1.0000000  0.0000000 )       ( -0.3535534 )


      isym = 15      90 deg rotation - cart. axis [-1,0,0]       

 cryst.   s(15) = (     1          0         -1      )    f =( -0.2500000 )
                  (     1          0          0      )       ( -0.2500000 )
                  (     1         -1          0      )       ( -0.2500000 )

 cart.    s(15) = (  1.0000000  0.0000000  0.0000000 )    f =( -0.3535534 )
                  (  0.0000000  0.0000000  1.0000000 )       ( -0.3535534 )
                  (  0.0000000 -1.0000000  0.0000000 )       ( -0.3535534 )


      isym = 16      90 deg rotation - cart. axis [1,0,0]        

 cryst.   s(16) = (     0          1          0      )    f =( -0.2500000 )
                  (     0          1         -1      )       ( -0.2500000 )
                  (    -1          1          0      )       ( -0.2500000 )

 cart.    s(16) = (  1.0000000  0.0000000  0.0000000 )    f =( -0.3535534 )
                  (  0.0000000  0.0000000 -1.0000000 )       ( -0.3535534 )
                  (  0.0000000  1.0000000  0.0000000 )       ( -0.3535534 )


      isym = 17     120 deg rotation - cart. axis [-1,-1,-1]     

 cryst.   s(17) = (     0          1          0      )
                  (     0          0          1      )
                  (     1          0          0      )

 cart.    s(17) = (  0.0000000  1.0000000  0.0000000 )
                  (  0.0000000  0.0000000  1.0000000 )
                  (  1.0000000  0.0000000  0.0000000 )


      isym = 18     120 deg rotation - cart. axis [-1,1,1]       

 cryst.   s(18) = (     0         -1          0      )
                  (     1         -1          0      )
                  (     0         -1          1      )

 cart.    s(18) = (  0.0000000 -1.0000000  0.0000000 )
                  (  0.0000000  0.0000000  1.0000000 )
                  ( -1.0000000  0.0000000  0.0000000 )


      isym = 19     120 deg rotation - cart. axis [1,1,-1]       

 cryst.   s(19) = (     1          0         -1      )
                  (     0          0         -1      )
                  (     0          1         -1      )

 cart.    s(19) = (  0.0000000  1.0000000  0.0000000 )
                  (  0.0000000  0.0000000 -1.0000000 )
                  ( -1.0000000  0.0000000  0.0000000 )


      isym = 20     120 deg rotation - cart. axis [1,-1,1]       

 cryst.   s(20) = (    -1          0          1      )
                  (    -1          1          0      )
                  (    -1          0          0      )

 cart.    s(20) = (  0.0000000 -1.0000000  0.0000000 )
                  (  0.0000000  0.0000000 -1.0000000 )
                  (  1.0000000  0.0000000  0.0000000 )


      isym = 21     120 deg rotation - cart. axis [1,1,1]        

 cryst.   s(21) = (     0          0          1      )
                  (     1          0          0      )
                  (     0          1          0      )

 cart.    s(21) = (  0.0000000  0.0000000  1.0000000 )
                  (  1.0000000  0.0000000  0.0000000 )
                  (  0.0000000  1.0000000  0.0000000 )


      isym = 22     120 deg rotation - cart. axis [-1,1,-1]      

 cryst.   s(22) = (     0          0         -1      )
                  (     0          1         -1      )
                  (     1          0         -1      )

 cart.    s(22) = (  0.0000000  0.0000000  1.0000000 )
                  ( -1.0000000  0.0000000  0.0000000 )
                  (  0.0000000 -1.0000000  0.0000000 )


      isym = 23     120 deg rotation - cart. axis [1,-1,-1]      

 cryst.   s(23) = (    -1          1          0      )
                  (    -1          0          0      )
                  (    -1          0          1      )

 cart.    s(23) = (  0.0000000  0.0000000 -1.0000000 )
                  ( -1.0000000  0.0000000  0.0000000 )
                  (  0.0000000  1.0000000  0.0000000 )


      isym = 24     120 deg rotation - cart. axis [-1,-1,1]      

 cryst.   s(24) = (     1         -1          0      )
                  (     0         -1          1      )
                  (     0         -1          0      )

 cart.    s(24) = (  0.0000000  0.0000000 -1.0000000 )
                  (  1.0000000  0.0000000  0.0000000 )
                  (  0.0000000 -1.0000000  0.0000000 )


      isym = 25     inversion                                    

 cryst.   s(25) = (    -1          0          0      )    f =( -0.2500000 )
                  (     0         -1          0      )       ( -0.2500000 )
                  (     0          0         -1      )       ( -0.2500000 )

 cart.    s(25) = ( -1.0000000  0.0000000  0.0000000 )    f =( -0.3535534 )
                  (  0.0000000 -1.0000000  0.0000000 )       ( -0.3535534 )
                  (  0.0000000  0.0000000 -1.0000000 )       ( -0.3535534 )


      isym = 26     inv. 180 deg rotation - cart. axis [0,0,1]   

 cryst.   s(26) = (     1          0          0      )    f =( -0.2500000 )
                  (     1          0         -1      )       ( -0.2500000 )
                  (     1         -1          0      )       ( -0.2500000 )

 cart.    s(26) = (  1.0000000  0.0000000  0.0000000 )    f =( -0.3535534 )
                  (  0.0000000  1.0000000  0.0000000 )       ( -0.3535534 )
                  (  0.0000000  0.0000000 -1.0000000 )       ( -0.3535534 )


      isym = 27     inv. 180 deg rotation - cart. axis [0,1,0]   

 cryst.   s(27) = (     0          1         -1      )    f =( -0.2500000 )
                  (     0          1          0      )       ( -0.2500000 )
                  (    -1          1          0      )       ( -0.2500000 )

 cart.    s(27) = (  1.0000000  0.0000000  0.0000000 )    f =( -0.3535534 )
                  (  0.0000000 -1.0000000  0.0000000 )       ( -0.3535534 )
                  (  0.0000000  0.0000000  1.0000000 )       ( -0.3535534 )


      isym = 28     inv. 180 deg rotation - cart. axis [1,0,0]   

 cryst.   s(28) = (     0         -1          1      )    f =( -0.2500000 )
                  (    -1          0          1      )       ( -0.2500000 )
                  (     0          0          1      )       ( -0.2500000 )

 cart.    s(28) = ( -1.0000000  0.0000000  0.0000000 )    f =( -0.3535534 )
                  (  0.0000000  1.0000000  0.0000000 )       ( -0.3535534 )
                  (  0.0000000  0.0000000  1.0000000 )       ( -0.3535534 )


      isym = 29     inv. 180 deg rotation - cart. axis [1,1,0]   

 cryst.   s(29) = (    -1          0          0      )
                  (    -1          1          0      )
                  (    -1          0          1      )

 cart.    s(29) = (  0.0000000 -1.0000000  0.0000000 )
                  ( -1.0000000  0.0000000  0.0000000 )
                  (  0.0000000  0.0000000  1.0000000 )


      isym = 30     inv. 180 deg rotation - cart. axis [1,-1,0]  

 cryst.   s(30) = (     1          0          0      )
                  (     0          0          1      )
                  (     0          1          0      )

 cart.    s(30) = (  0.0000000  1.0000000  0.0000000 )
                  (  1.0000000  0.0000000  0.0000000 )
                  (  0.0000000  0.0000000  1.0000000 )


      isym = 31     inv.  90 deg rotation - cart. axis [0,0,-1]  

 cryst.   s(31) = (     0         -1          1      )
                  (     1         -1          0      )
                  (     0         -1          0      )

 cart.    s(31) = (  0.0000000 -1.0000000  0.0000000 )
                  (  1.0000000  0.0000000  0.0000000 )
                  (  0.0000000  0.0000000 -1.0000000 )


      isym = 32     inv.  90 deg rotation - cart. axis [0,0,1]   

 cryst.   s(32) = (     0          1         -1      )
                  (     0          0         -1      )
                  (     1          0         -1      )

 cart.    s(32) = (  0.0000000  1.0000000  0.0000000 )
                  ( -1.0000000  0.0000000  0.0000000 )
                  (  0.0000000  0.0000000 -1.0000000 )


      isym = 33     inv. 180 deg rotation - cart. axis [1,0,1]   

 cryst.   s(33) = (     1         -1          0      )
                  (     0         -1          0      )
                  (     0         -1          1      )

 cart.    s(33) = (  0.0000000  0.0000000 -1.0000000 )
                  (  0.0000000  1.0000000  0.0000000 )
                  ( -1.0000000  0.0000000  0.0000000 )


      isym = 34     inv. 180 deg rotation - cart. axis [-1,0,1]  

 cryst.   s(34) = (     0          0          1      )
                  (     0          1          0      )
                  (     1          0          0      )

 cart.    s(34) = (  0.0000000  0.0000000  1.0000000 )
                  (  0.0000000  1.0000000  0.0000000 )
                  (  1.0000000  0.0000000  0.0000000 )


      isym = 35     inv.  90 deg rotation - cart. axis [0,1,0]   

 cryst.   s(35) = (    -1          1          0      )
                  (    -1          0          1      )
                  (    -1          0          0      )

 cart.    s(35) = (  0.0000000  0.0000000 -1.0000000 )
                  (  0.0000000 -1.0000000  0.0000000 )
                  (  1.0000000  0.0000000  0.0000000 )


      isym = 36     inv.  90 deg rotation - cart. axis [0,-1,0]  

 cryst.   s(36) = (     0          0         -1      )
                  (     1          0         -1      )
                  (     0          1         -1      )

 cart.    s(36) = (  0.0000000  0.0000000  1.0000000 )
                  (  0.0000000 -1.0000000  0.0000000 )
                  ( -1.0000000  0.0000000  0.0000000 )


      isym = 37     inv. 180 deg rotation - cart. axis [0,1,1]   

 cryst.   s(37) = (     1          0         -1      )
                  (     0          1         -1      )
                  (     0          0         -1      )

 cart.    s(37) = (  1.0000000  0.0000000  0.0000000 )
                  (  0.0000000  0.0000000 -1.0000000 )
                  (  0.0000000 -1.0000000  0.0000000 )


      isym = 38     inv. 180 deg rotation - cart. axis [0,1,-1]  

 cryst.   s(38) = (     0          1          0      )
                  (     1          0          0      )
                  (     0          0          1      )

 cart.    s(38) = (  1.0000000  0.0000000  0.0000000 )
                  (  0.0000000  0.0000000  1.0000000 )
                  (  0.0000000  1.0000000  0.0000000 )


      isym = 39     inv.  90 deg rotation - cart. axis [-1,0,0]  

 cryst.   s(39) = (    -1          0          1      )
                  (    -1          0          0      )
                  (    -1          1          0      )

 cart.    s(39) = ( -1.0000000  0.0000000  0.0000000 )
                  (  0.0000000  0.0000000 -1.0000000 )
                  (  0.0000000  1.0000000  0.0000000 )


      isym = 40     inv.  90 deg rotation - cart. axis [1,0,0]   

 cryst.   s(40) = (     0         -1          0      )
                  (     0         -1          1      )
                  (     1         -1          0      )

 cart.    s(40) = ( -1.0000000  0.0000000  0.0000000 )
                  (  0.0000000  0.0000000  1.0000000 )
                  (  0.0000000 -1.0000000  0.0000000 )


      isym = 41     inv. 120 deg rotation - cart. axis [-1,-1,-1]

 cryst.   s(41) = (     0         -1          0      )    f =( -0.2500000 )
                  (     0          0         -1      )       ( -0.2500000 )
                  (    -1          0          0      )       ( -0.2500000 )

 cart.    s(41) = (  0.0000000 -1.0000000  0.0000000 )    f =( -0.3535534 )
                  (  0.0000000  0.0000000 -1.0000000 )       ( -0.3535534 )
                  ( -1.0000000  0.0000000  0.0000000 )       ( -0.3535534 )


      isym = 42     inv. 120 deg rotation - cart. axis [-1,1,1]  

 cryst.   s(42) = (     0          1          0      )    f =( -0.2500000 )
                  (    -1          1          0      )       ( -0.2500000 )
                  (     0          1         -1      )       ( -0.2500000 )

 cart.    s(42) = (  0.0000000  1.0000000  0.0000000 )    f =( -0.3535534 )
                  (  0.0000000  0.0000000 -1.0000000 )       ( -0.3535534 )
                  (  1.0000000  0.0000000  0.0000000 )       ( -0.3535534 )


      isym = 43     inv. 120 deg rotation - cart. axis [1,1,-1]  

 cryst.   s(43) = (    -1          0          1      )    f =( -0.2500000 )
                  (     0          0          1      )       ( -0.2500000 )
                  (     0         -1          1      )       ( -0.2500000 )

 cart.    s(43) = (  0.0000000 -1.0000000  0.0000000 )    f =( -0.3535534 )
                  (  0.0000000  0.0000000  1.0000000 )       ( -0.3535534 )
                  (  1.0000000  0.0000000  0.0000000 )       ( -0.3535534 )


      isym = 44     inv. 120 deg rotation - cart. axis [1,-1,1]  

 cryst.   s(44) = (     1          0         -1      )    f =( -0.2500000 )
                  (     1         -1          0      )       ( -0.2500000 )
                  (     1          0          0      )       ( -0.2500000 )

 cart.    s(44) = (  0.0000000  1.0000000  0.0000000 )    f =( -0.3535534 )
                  (  0.0000000  0.0000000  1.0000000 )       ( -0.3535534 )
                  ( -1.0000000  0.0000000  0.0000000 )       ( -0.3535534 )


      isym = 45     inv. 120 deg rotation - cart. axis [1,1,1]   

 cryst.   s(45) = (     0          0         -1      )    f =( -0.2500000 )
                  (    -1          0          0      )       ( -0.2500000 )
                  (     0         -1          0      )       ( -0.2500000 )

 cart.    s(45) = (  0.0000000  0.0000000 -1.0000000 )    f =( -0.3535534 )
                  ( -1.0000000  0.0000000  0.0000000 )       ( -0.3535534 )
                  (  0.0000000 -1.0000000  0.0000000 )       ( -0.3535534 )


      isym = 46     inv. 120 deg rotation - cart. axis [-1,1,-1] 

 cryst.   s(46) = (     0          0          1      )    f =( -0.2500000 )
                  (     0         -1          1      )       ( -0.2500000 )
                  (    -1          0          1      )       ( -0.2500000 )

 cart.    s(46) = (  0.0000000  0.0000000 -1.0000000 )    f =( -0.3535534 )
                  (  1.0000000  0.0000000  0.0000000 )       ( -0.3535534 )
                  (  0.0000000  1.0000000  0.0000000 )       ( -0.3535534 )


      isym = 47     inv. 120 deg rotation - cart. axis [1,-1,-1] 

 cryst.   s(47) = (     1         -1          0      )    f =( -0.2500000 )
                  (     1          0          0      )       ( -0.2500000 )
                  (     1          0         -1      )       ( -0.2500000 )

 cart.    s(47) = (  0.0000000  0.0000000  1.0000000 )    f =( -0.3535534 )
                  (  1.0000000  0.0000000  0.0000000 )       ( -0.3535534 )
                  (  0.0000000 -1.0000000  0.0000000 )       ( -0.3535534 )


      isym = 48     inv. 120 deg rotation - cart. axis [-1,-1,1] 

 cryst.   s(48) = (    -1          1          0      )    f =( -0.2500000 )
                  (     0          1         -1      )       ( -0.2500000 )
                  (     0          1          0      )       ( -0.2500000 )

 cart.    s(48) = (  0.0000000  0.0000000  1.0000000 )    f =( -0.3535534 )
                  ( -1.0000000  0.0000000  0.0000000 )       ( -0.3535534 )
                  (  0.0000000  1.0000000  0.0000000 )       ( -0.3535534 )


   Cartesian axes

     site n.     atom                  positions (alat units)
         1        Si     tau(   1) = (   0.0000000   0.0000000   0.0000000  )
         2        Si     tau(   2) = (   0.3535534   0.3535534   0.3535534  )

   Crystallographic axes

     site n.     atom                  positions (cryst. coord.)
         1        Si     tau(   1) = (  0.0000000  0.0000000  0.0000000  )
         2        Si     tau(   2) = (  0.2500000  0.2500000  0.2500000  )

     number of k points=    16
                       cart. coord. in units 2pi/alat
        k(    1) = (   0.0000000   0.0000000   0.0000000), wk =   0.0046296
        k(    2) = (  -0.1178511   0.1178511   0.1178511), wk =   0.0370370
        k(    3) = (  -0.2357023   0.2357023   0.2357023), wk =   0.0370370
        k(    4) = (   0.3535534  -0.3535534  -0.3535534), wk =   0.0185185
        k(    5) = (   0.0000000   0.0000000   0.2357023), wk =   0.0277778
        k(    6) = (  -0.1178511   0.1178511   0.3535534), wk =   0.1111111
        k(    7) = (   0.4714045  -0.4714045  -0.2357023), wk =   0.1111111
        k(    8) = (   0.3535534  -0.3535534  -0.1178511), wk =   0.1111111
        k(    9) = (   0.2357023  -0.2357023   0.0000000), wk =   0.0555556
        k(   10) = (   0.0000000   0.0000000   0.4714045), wk =   0.0277778
        k(   11) = (   0.5892557  -0.5892557  -0.1178511), wk =   0.1111111
        k(   12) = (   0.4714045  -0.4714045  -0.0000000), wk =   0.0555556
        k(   13) = (   0.0000000   0.0000000  -0.7071068), wk =   0.0138889
        k(   14) = (   0.7071068  -0.4714045  -0.2357023), wk =   0.1111111
        k(   15) = (   0.5892557  -0.3535534  -0.1178511), wk =   0.1111111
        k(   16) = (   0.0000000   0.2357023  -0.7071068), wk =   0.0555556

                       cryst. coord.
        k(    1) = (   0.0000000   0.0000000   0.0000000), wk =   0.0046296
        k(    2) = (   0.0000000   0.0000000   0.1666667), wk =   0.0370370
        k(    3) = (   0.0000000   0.0000000   0.3333333), wk =   0.0370370
        k(    4) = (   0.0000000   0.0000000  -0.5000000), wk =   0.0185185
        k(    5) = (   0.0000000   0.1666667   0.1666667), wk =   0.0277778
        k(    6) = (   0.0000000   0.1666667   0.3333333), wk =   0.1111111
        k(    7) = (   0.0000000   0.1666667  -0.5000000), wk =   0.1111111
        k(    8) = (   0.0000000   0.1666667  -0.3333333), wk =   0.1111111
        k(    9) = (   0.0000000   0.1666667  -0.1666667), wk =   0.0555556
        k(   10) = (   0.0000000   0.3333333   0.3333333), wk =   0.0277778
        k(   11) = (   0.0000000   0.3333333  -0.5000000), wk =   0.1111111
        k(   12) = (   0.0000000   0.3333333  -0.3333333), wk =   0.0555556
        k(   13) = (   0.0000000  -0.5000000  -0.5000000), wk =   0.0138889
        k(   14) = (   0.1666667   0.3333333  -0.5000000), wk =   0.1111111
        k(   15) = (   0.1666667   0.3333333  -0.3333333), wk =   0.1111111
        k(   16) = (   0.1666667  -0.5000000  -0.3333333), wk =   0.0555556

     Dense  grid:    47855 G-vectors     FFT dimensions: (  60,  60,  60)

     Smooth grid:    16889 G-vectors     FFT dimensions: (  36,  36,  36)

     Dynamical RAM for                 wfc:       0.13 MB

     Dynamical RAM for     wfc (w. buffer):       4.27 MB

     Dynamical RAM for           str. fact:       0.73 MB

     Dynamical RAM for           local pot:       0.00 MB

     Dynamical RAM for          nlocal pot:       1.17 MB

     Dynamical RAM for                qrad:       1.76 MB

     Dynamical RAM for          rho,v,vnew:      14.27 MB

     Dynamical RAM for               rhoin:       4.76 MB

     Dynamical RAM for            rho*nmix:      23.37 MB

     Dynamical RAM for           G-vectors:       2.87 MB

     Dynamical RAM for          h,s,v(r/c):       0.00 MB

     Dynamical RAM for          <psi|beta>:       0.00 MB

     Dynamical RAM for                 psi:       0.26 MB

     Dynamical RAM for                hpsi:       0.26 MB

     Dynamical RAM for      wfcinit/wfcrot:       0.52 MB

     Estimated static dynamical RAM per process >      41.17 MB

     Estimated max dynamical RAM per process >      65.06 MB
     Generating pointlists ...
     new r_m :   0.2526 (alat units)  1.8332 (a.u.) for type    1

     Initial potential from superposition of free atoms

     starting charge       7.9989, renormalised to       8.0000
     Starting wfcs are    8 randomized atomic wfcs

     total cpu time spent up to now is        1.0 secs

     Self-consistent Calculation

     iteration #  1     ecut=    60.00 Ry     beta= 0.40
     Davidson diagonalization with overlap

---- Real-time Memory Report at c_bands before calling an iterative solver
            71 MiB given to the printing process from OS
             0 MiB allocation reported by mallinfo(arena+hblkhd)
           136 MiB available memory on the node where the printing process lives
------------------
     ethr =  1.00E-02,  avg # of iterations =  2.0

     Threshold (ethr) on eigenvalues was too large:
     Diagonalizing with lowered threshold

     Davidson diagonalization with overlap

---- Real-time Memory Report at c_bands before calling an iterative solver
            74 MiB given to the printing process from OS
             0 MiB allocation reported by mallinfo(arena+hblkhd)
           135 MiB available memory on the node where the printing process lives
------------------
     ethr =  6.02E-04,  avg # of iterations =  2.0

     total cpu time spent up to now is        1.7 secs

     total energy              =     -17.05176903 Ry
     estimated scf accuracy    <       0.05694731 Ry

     total magnetization       =     0.00 Bohr mag/cell
     absolute magnetization    =     0.00 Bohr mag/cell

     iteration #  2     ecut=    60.00 Ry     beta= 0.40
     Davidson diagonalization with overlap

---- Real-time Memory Report at c_bands before calling an iterative solver
            85 MiB given to the printing process from OS
             0 MiB allocation reported by mallinfo(arena+hblkhd)
           151 MiB available memory on the node where the printing process lives
------------------
     ethr =  7.12E-04,  avg # of iterations =  1.0

     total cpu time spent up to now is        2.0 secs

     total energy              =     -17.04666506 Ry
     estimated scf accuracy    <       0.01736345 Ry

     total magnetization       =     0.00 Bohr mag/cell
     absolute magnetization    =     0.00 Bohr mag/cell

     iteration #  3     ecut=    60.00 Ry     beta= 0.40
     Davidson diagonalization with overlap

---- Real-time Memory Report at c_bands before calling an iterative solver
            86 MiB given to the printing process from OS
             0 MiB allocation reported by mallinfo(arena+hblkhd)
           149 MiB available memory on the node where the printing process lives
------------------
     ethr =  2.17E-04,  avg # of iterations =  1.9

     total cpu time spent up to now is        2.3 secs

     total energy              =     -17.04856086 Ry
     estimated scf accuracy    <       0.00039466 Ry

     total magnetization       =     0.00 Bohr mag/cell
     absolute magnetization    =     0.00 Bohr mag/cell

     iteration #  4     ecut=    60.00 Ry     beta= 0.40
     Davidson diagonalization with overlap

---- Real-time Memory Report at c_bands before calling an iterative solver
            87 MiB given to the printing process from OS
             0 MiB allocation reported by mallinfo(arena+hblkhd)
           148 MiB available memory on the node where the printing process lives
------------------
     ethr =  4.93E-06,  avg # of iterations =  3.0

     total cpu time spent up to now is        2.7 secs

     total energy              =     -17.04859289 Ry
     estimated scf accuracy    <       0.00047572 Ry

     total magnetization       =     0.00 Bohr mag/cell
     absolute magnetization    =     0.00 Bohr mag/cell

     iteration #  5     ecut=    60.00 Ry     beta= 0.40
     Davidson diagonalization with overlap

---- Real-time Memory Report at c_bands before calling an iterative solver
            88 MiB given to the printing process from OS
             0 MiB allocation reported by mallinfo(arena+hblkhd)
           148 MiB available memory on the node where the printing process lives
------------------
     ethr =  4.93E-06,  avg # of iterations =  1.9

     total cpu time spent up to now is        3.1 secs

     total energy              =     -17.04864732 Ry
     estimated scf accuracy    <       0.00000084 Ry

     total magnetization       =     0.00 Bohr mag/cell
     absolute magnetization    =     0.00 Bohr mag/cell

     iteration #  6     ecut=    60.00 Ry     beta= 0.40
     Davidson diagonalization with overlap

---- Real-time Memory Report at c_bands before calling an iterative solver
            89 MiB given to the printing process from OS
             0 MiB allocation reported by mallinfo(arena+hblkhd)
           147 MiB available memory on the node where the printing process lives
------------------
     ethr =  1.04E-08,  avg # of iterations =  7.6

     total cpu time spent up to now is        3.7 secs

     total energy              =     -17.04865365 Ry
     estimated scf accuracy    <       0.00000387 Ry

     total magnetization       =     0.00 Bohr mag/cell
     absolute magnetization    =     0.00 Bohr mag/cell

     iteration #  7     ecut=    60.00 Ry     beta= 0.40
     Davidson diagonalization with overlap

---- Real-time Memory Report at c_bands before calling an iterative solver
            90 MiB given to the printing process from OS
             0 MiB allocation reported by mallinfo(arena+hblkhd)
           145 MiB available memory on the node where the printing process lives
------------------
     ethr =  1.04E-08,  avg # of iterations =  2.0

     total cpu time spent up to now is        4.1 secs

     total energy              =     -17.04866091 Ry
     estimated scf accuracy    <       0.00000100 Ry

     total magnetization       =    -0.00 Bohr mag/cell
     absolute magnetization    =     0.00 Bohr mag/cell

     iteration #  8     ecut=    60.00 Ry     beta= 0.40
     Davidson diagonalization with overlap

---- Real-time Memory Report at c_bands before calling an iterative solver
            91 MiB given to the printing process from OS
             0 MiB allocation reported by mallinfo(arena+hblkhd)
           144 MiB available memory on the node where the printing process lives
------------------
     ethr =  1.04E-08,  avg # of iterations =  3.1

     total cpu time spent up to now is        4.6 secs

     total energy              =     -17.04866479 Ry
     estimated scf accuracy    <       0.00002265 Ry

     total magnetization       =    -0.00 Bohr mag/cell
     absolute magnetization    =     0.00 Bohr mag/cell

     iteration #  9     ecut=    60.00 Ry     beta= 0.40
     Davidson diagonalization with overlap

---- Real-time Memory Report at c_bands before calling an iterative solver
            92 MiB given to the printing process from OS
             0 MiB allocation reported by mallinfo(arena+hblkhd)
           143 MiB available memory on the node where the printing process lives
------------------
     ethr =  1.04E-08,  avg # of iterations =  1.4

     total cpu time spent up to now is        4.9 secs

     total energy              =     -17.04866858 Ry
     estimated scf accuracy    <       0.00002852 Ry

     total magnetization       =    -0.00 Bohr mag/cell
     absolute magnetization    =     0.00 Bohr mag/cell

     iteration # 10     ecut=    60.00 Ry     beta= 0.40
     Davidson diagonalization with overlap

---- Real-time Memory Report at c_bands before calling an iterative solver
            93 MiB given to the printing process from OS
             0 MiB allocation reported by mallinfo(arena+hblkhd)
           142 MiB available memory on the node where the printing process lives
------------------
     ethr =  1.04E-08,  avg # of iterations =  1.9

     total cpu time spent up to now is        5.3 secs

     total energy              =     -17.04867952 Ry
     estimated scf accuracy    <       0.00003804 Ry

     total magnetization       =     0.00 Bohr mag/cell
     absolute magnetization    =     0.00 Bohr mag/cell

     iteration # 11     ecut=    60.00 Ry     beta= 0.40
     Davidson diagonalization with overlap

---- Real-time Memory Report at c_bands before calling an iterative solver
            93 MiB given to the printing process from OS
             0 MiB allocation reported by mallinfo(arena+hblkhd)
           143 MiB available memory on the node where the printing process lives
------------------
     ethr =  1.04E-08,  avg # of iterations =  2.6

     total cpu time spent up to now is        5.7 secs

     total energy              =     -17.04868649 Ry
     estimated scf accuracy    <       0.00006662 Ry

     total magnetization       =     0.00 Bohr mag/cell
     absolute magnetization    =     0.00 Bohr mag/cell

     iteration # 12     ecut=    60.00 Ry     beta= 0.40
     Davidson diagonalization with overlap

---- Real-time Memory Report at c_bands before calling an iterative solver
            93 MiB given to the printing process from OS
             0 MiB allocation reported by mallinfo(arena+hblkhd)
           141 MiB available memory on the node where the printing process lives
------------------
     ethr =  1.04E-08,  avg # of iterations =  2.0

     total cpu time spent up to now is        6.1 secs

     total energy              =     -17.04869305 Ry
     estimated scf accuracy    <       0.00008347 Ry

     total magnetization       =     0.00 Bohr mag/cell
     absolute magnetization    =     0.00 Bohr mag/cell

     iteration # 13     ecut=    60.00 Ry     beta= 0.40
     Davidson diagonalization with overlap

---- Real-time Memory Report at c_bands before calling an iterative solver
            93 MiB given to the printing process from OS
             0 MiB allocation reported by mallinfo(arena+hblkhd)
           142 MiB available memory on the node where the printing process lives
------------------
     ethr =  1.04E-08,  avg # of iterations =  2.0

     total cpu time spent up to now is        6.5 secs

     total energy              =     -17.04866719 Ry
     estimated scf accuracy    <       0.00010023 Ry

     total magnetization       =    -0.00 Bohr mag/cell
     absolute magnetization    =     0.00 Bohr mag/cell

     iteration # 14     ecut=    60.00 Ry     beta= 0.40
     Davidson diagonalization with overlap

---- Real-time Memory Report at c_bands before calling an iterative solver
            93 MiB given to the printing process from OS
             0 MiB allocation reported by mallinfo(arena+hblkhd)
           142 MiB available memory on the node where the printing process lives
------------------
     ethr =  1.04E-08,  avg # of iterations =  3.1

     total cpu time spent up to now is        7.0 secs

     total energy              =     -17.04864905 Ry
     estimated scf accuracy    <       0.00003925 Ry

     total magnetization       =     0.00 Bohr mag/cell
     absolute magnetization    =     0.00 Bohr mag/cell

     iteration # 15     ecut=    60.00 Ry     beta= 0.40
     Davidson diagonalization with overlap

---- Real-time Memory Report at c_bands before calling an iterative solver
            93 MiB given to the printing process from OS
             0 MiB allocation reported by mallinfo(arena+hblkhd)
           143 MiB available memory on the node where the printing process lives
------------------
     ethr =  1.04E-08,  avg # of iterations =  4.4

     total cpu time spent up to now is        7.5 secs

     total energy              =     -17.04865352 Ry
     estimated scf accuracy    <          5.4E-09 Ry

     total magnetization       =    -0.00 Bohr mag/cell
     absolute magnetization    =     0.00 Bohr mag/cell

     iteration # 16     ecut=    60.00 Ry     beta= 0.40
     Davidson diagonalization with overlap

---- Real-time Memory Report at c_bands before calling an iterative solver
            93 MiB given to the printing process from OS
             0 MiB allocation reported by mallinfo(arena+hblkhd)
           143 MiB available memory on the node where the printing process lives
------------------
     ethr =  6.71E-11,  avg # of iterations =  6.1

     Magnetic moment per site  (integrated on atomic sphere of radius R)
     atom   1 (R=0.253)  charge=  1.8397  magn= -0.0000
     atom   2 (R=0.253)  charge=  1.8397  magn= -0.0000

     total cpu time spent up to now is        8.2 secs

     End of self-consistent calculation

 ------ SPIN UP ------------


          k = 0.0000 0.0000 0.0000 (  2109 PWs)   bands (ev):

    -5.9198   6.0417   6.0417   6.0417

     occupation numbers 
     1.0000   1.0000   1.0000   1.0000

          k =-0.1179 0.1179 0.1179 (  2112 PWs)   bands (ev):

    -5.5588   3.6418   5.5913   5.5913

     occupation numbers 
     1.0000   1.0000   1.0000   1.0000

          k =-0.2357 0.2357 0.2357 (  2114 PWs)   bands (ev):

    -4.5430   0.6875   5.0432   5.0432

     occupation numbers 
     1.0000   1.0000   1.0000   1.0000

          k = 0.3536-0.3536-0.3536 (  2120 PWs)   bands (ev):

    -3.5850  -0.9508   4.8461   4.8461

     occupation numbers 
     1.0000   1.0000   1.0000   1.0000

          k = 0.0000 0.0000 0.2357 (  2105 PWs)   bands (ev):

    -5.4360   3.9803   4.8472   4.8472

     occupation numbers 
     1.0000   1.0000   1.0000   1.0000

          k =-0.1179 0.1179 0.3536 (  2106 PWs)   bands (ev):

    -4.6210   1.5881   4.0337   4.2953

     occupation numbers 
     1.0000   1.0000   1.0000   1.0000

          k = 0.4714-0.4714-0.2357 (  2120 PWs)   bands (ev):

    -3.4275  -0.5821   3.2462   4.2666

     occupation numbers 
     1.0000   1.0000   1.0000   1.0000

          k = 0.3536-0.3536-0.1179 (  2122 PWs)   bands (ev):

    -3.8136   0.0182   2.9750   4.7465

     occupation numbers 
     1.0000   1.0000   1.0000   1.0000

          k = 0.2357-0.2357 0.0000 (  2109 PWs)   bands (ev):

    -4.9708   2.3070   3.6126   5.4789

     occupation numbers 
     1.0000   1.0000   1.0000   1.0000

          k = 0.0000 0.0000 0.4714 (  2108 PWs)   bands (ev):

    -4.0172   1.0175   3.6239   3.6239

     occupation numbers 
     1.0000   1.0000   1.0000   1.0000

          k = 0.5893-0.5893-0.1179 (  2126 PWs)   bands (ev):

    -2.8536  -0.5316   2.3904   3.4880

     occupation numbers 
     1.0000   1.0000   1.0000   1.0000

          k = 0.4714-0.4714-0.0000 (  2121 PWs)   bands (ev):

    -2.6550  -0.7377   1.6012   3.9309

     occupation numbers 
     1.0000   1.0000   1.0000   1.0000

          k = 0.0000 0.0000-0.7071 (  2100 PWs)   bands (ev):

    -1.7803  -1.7803   3.1898   3.1898

     occupation numbers 
     1.0000   1.0000   1.0000   1.0000

          k = 0.7071-0.4714-0.2357 (  2113 PWs)   bands (ev):

    -3.6313   0.3868   2.4512   3.7381

     occupation numbers 
     1.0000   1.0000   1.0000   1.0000

          k = 0.5893-0.3536-0.1179 (  2122 PWs)   bands (ev):

    -2.6447  -0.8122   2.0081   3.2681

     occupation numbers 
     1.0000   1.0000   1.0000   1.0000

          k = 0.0000 0.2357-0.7071 (  2138 PWs)   bands (ev):

    -1.6587  -1.6587   2.3778   2.3778

     occupation numbers 
     1.0000   1.0000   1.0000   1.0000

 ------ SPIN DOWN ----------


          k = 0.0000 0.0000 0.0000 (  2109 PWs)   bands (ev):

    -5.9198   6.0417   6.0417   6.0417

     occupation numbers 
     1.0000   1.0000   1.0000   1.0000

          k =-0.1179 0.1179 0.1179 (  2112 PWs)   bands (ev):

    -5.5588   3.6418   5.5913   5.5913

     occupation numbers 
     1.0000   1.0000   1.0000   1.0000

          k =-0.2357 0.2357 0.2357 (  2114 PWs)   bands (ev):

    -4.5430   0.6875   5.0432   5.0432

     occupation numbers 
     1.0000   1.0000   1.0000   1.0000

          k = 0.3536-0.3536-0.3536 (  2120 PWs)   bands (ev):

    -3.5850  -0.9508   4.8461   4.8461

     occupation numbers 
     1.0000   1.0000   1.0000   1.0000

          k = 0.0000 0.0000 0.2357 (  2105 PWs)   bands (ev):

    -5.4360   3.9803   4.8472   4.8472

     occupation numbers 
     1.0000   1.0000   1.0000   1.0000

          k =-0.1179 0.1179 0.3536 (  2106 PWs)   bands (ev):

    -4.6210   1.5881   4.0337   4.2953

     occupation numbers 
     1.0000   1.0000   1.0000   1.0000

          k = 0.4714-0.4714-0.2357 (  2120 PWs)   bands (ev):

    -3.4275  -0.5821   3.2462   4.2666

     occupation numbers 
     1.0000   1.0000   1.0000   1.0000

          k = 0.3536-0.3536-0.1179 (  2122 PWs)   bands (ev):

    -3.8136   0.0182   2.9750   4.7465

     occupation numbers 
     1.0000   1.0000   1.0000   1.0000

          k = 0.2357-0.2357 0.0000 (  2109 PWs)   bands (ev):

    -4.9708   2.3070   3.6126   5.4789

     occupation numbers 
     1.0000   1.0000   1.0000   1.0000

          k = 0.0000 0.0000 0.4714 (  2108 PWs)   bands (ev):

    -4.0172   1.0175   3.6239   3.6239

     occupation numbers 
     1.0000   1.0000   1.0000   1.0000

          k = 0.5893-0.5893-0.1179 (  2126 PWs)   bands (ev):

    -2.8536  -0.5316   2.3904   3.4880

     occupation numbers 
     1.0000   1.0000   1.0000   1.0000

          k = 0.4714-0.4714-0.0000 (  2121 PWs)   bands (ev):

    -2.6550  -0.7377   1.6012   3.9309

     occupation numbers 
     1.0000   1.0000   1.0000   1.0000

          k = 0.0000 0.0000-0.7071 (  2100 PWs)   bands (ev):

    -1.7803  -1.7803   3.1898   3.1898

     occupation numbers 
     1.0000   1.0000   1.0000   1.0000

          k = 0.7071-0.4714-0.2357 (  2113 PWs)   bands (ev):

    -3.6313   0.3868   2.4512   3.7381

     occupation numbers 
     1.0000   1.0000   1.0000   1.0000

          k = 0.5893-0.3536-0.1179 (  2122 PWs)   bands (ev):

    -2.6447  -0.8122   2.0081   3.2681

     occupation numbers 
     1.0000   1.0000   1.0000   1.0000

          k = 0.0000 0.2357-0.7071 (  2138 PWs)   bands (ev):

    -1.6587  -1.6587   2.3778   2.3778

     occupation numbers 
     1.0000   1.0000   1.0000   1.0000

     highest occupied level (ev):     6.0417

!    total energy              =     -17.04865354 Ry
     estimated scf accuracy    <          2.1E-11 Ry

     The total energy is the sum of the following terms:
     one-electron contribution =       4.84686621 Ry
     hartree contribution      =       1.09984135 Ry
     xc contribution           =      -6.19938683 Ry
     ewald contribution        =     -16.79597428 Ry

     total magnetization       =    -0.00 Bohr mag/cell
     absolute magnetization    =     0.00 Bohr mag/cell

     convergence has been achieved in  16 iterations

     Forces acting on atoms (cartesian axes, Ry/au):

     atom    1 type  1   force =     0.00000000   -0.00000000    0.00000000
     atom    2 type  1   force =     0.00000000    0.00000000   -0.00000000
     The non-local contrib.  to forces
     atom    1 type  1   force =     0.00000000   -0.00000000   -0.00000000
     atom    2 type  1   force =     0.00000000    0.00000000    0.00000000
     The ionic contribution  to forces
     atom    1 type  1   force =     0.00000000    0.00000000    0.00000000
     atom    2 type  1   force =    -0.00000000   -0.00000000   -0.00000000
     The local contribution  to forces
     atom    1 type  1   force =     0.00000000    0.00000000    0.00000000
     atom    2 type  1   force =    -0.00000000   -0.00000000   -0.00000000
     The core correction contribution to forces
     atom    1 type  1   force =    -0.00000000    0.00000000    0.00000000
     atom    2 type  1   force =     0.00000000    0.00000000    0.00000000
     The Hubbard contrib.    to forces
     atom    1 type  1   force =     0.00000000    0.00000000    0.00000000
     atom    2 type  1   force =     0.00000000    0.00000000    0.00000000
     The SCF correction term to forces
     atom    1 type  1   force =    -0.00000000   -0.00000000    0.00000000
     atom    2 type  1   force =    -0.00000000   -0.00000000   -0.00000000

     Total force =     0.000000     Total SCF correction =     0.000000


     Computing stress (Cartesian axis) and pressure

          total   stress  (Ry/bohr**3)                   (kbar)     P=      -18.17
  -0.00012349  -0.00000000  -0.00000000          -18.17       -0.00       -0.00
  -0.00000000  -0.00012349  -0.00000000           -0.00      -18.17       -0.00
  -0.00000000  -0.00000000  -0.00012349           -0.00       -0.00      -18.17

     kinetic stress (kbar)   2236.83     -0.00     -0.00
                               -0.00   2236.83     -0.00
                               -0.00      0.00   2236.83

     local   stress (kbar)   -420.41      0.00      0.00
                                0.00   -420.41      0.00
                                0.00      0.00   -420.41

     nonloc. stress (kbar)   1970.44     -0.00      0.00
                               -0.00   1970.44      0.00
                                0.00      0.00   1970.44

     hartree stress (kbar)    199.56      0.00      0.00
                                0.00    199.56      0.00
                                0.00      0.00    199.56

     exc-cor stress (kbar)   -150.03      0.00      0.00
                                0.00   -150.03      0.00
                                0.00      0.00   -150.03

     corecor stress (kbar)   -807.05      0.00      0.00
                                0.00   -807.05      0.00
                                0.00      0.00   -807.05

     ewald   stress (kbar)  -3047.51     -0.00      0.00
                               -0.00  -3047.51     -0.00
                                0.00     -0.00  -3047.51

     hubbard stress (kbar)      0.00      0.00      0.00
                                0.00      0.00      0.00
                                0.00      0.00      0.00

     DFT-D   stress (kbar)      0.00      0.00      0.00
                                0.00      0.00      0.00
                                0.00      0.00      0.00

     XDM     stress (kbar)      0.00      0.00      0.00
                                0.00      0.00      0.00
                                0.00      0.00      0.00

     dft-nl  stress (kbar)      0.00      0.00      0.00
                                0.00      0.00      0.00
                                0.00      0.00      0.00

     TS-vdW  stress (kbar)      0.00      0.00      0.00
                                0.00      0.00      0.00
                                0.00      0.00      0.00

     MDB     stress (kbar)      0.00      0.00      0.00
                                0.00      0.00      0.00
                                0.00      0.00      0.00

     3D-RISM stress (kbar)      0.00      0.00      0.00
                                0.00      0.00      0.00
                                0.00      0.00      0.00


     Writing all to output data dir ./out/si_lda.save/ :
     XML data file, charge density, pseudopotentials, collected wavefunctions

     init_run     :      0.86s CPU      0.92s WALL (       1 calls)
     electrons    :      7.17s CPU      7.26s WALL (       1 calls)
     forces       :      0.10s CPU      0.11s WALL (       1 calls)
     stress       :      0.45s CPU      0.46s WALL (       1 calls)

     Called by init_run:
     wfcinit      :      0.30s CPU      0.30s WALL (       1 calls)
     wfcinit:atom :      0.00s CPU      0.00s WALL (      32 calls)
     wfcinit:wfcr :      0.26s CPU      0.27s WALL (      32 calls)
     potinit      :      0.20s CPU      0.21s WALL (       1 calls)
     hinit0       :      0.35s CPU      0.37s WALL (       1 calls)

     Called by electrons:
     c_bands      :      5.57s CPU      5.58s WALL (      17 calls)
     sum_band     :      0.87s CPU      0.88s WALL (      17 calls)
     v_of_rho     :      0.51s CPU      0.54s WALL (      17 calls)
     v_h          :      0.04s CPU      0.04s WALL (      17 calls)
     v_xc         :      0.52s CPU      0.57s WALL (      19 calls)
     mix_rho      :      0.14s CPU      0.16s WALL (      17 calls)

     Called by c_bands:
     init_us_2    :      0.44s CPU      0.44s WALL (    1184 calls)
     cegterg      :      4.62s CPU      4.63s WALL (     544 calls)

     Called by sum_band:
     sum_band:wei :      0.00s CPU      0.00s WALL (      17 calls)
     sum_band:loo :      0.75s CPU      0.75s WALL (      17 calls)
     sum_band:buf :      0.01s CPU      0.01s WALL (     544 calls)
     sum_band:ini :      0.20s CPU      0.20s WALL (     544 calls)

     Called by *egterg:
     cdiaghg      :      0.04s CPU      0.04s WALL (    2045 calls)
     cegterg:over :      0.14s CPU      0.14s WALL (    1533 calls)
     cegterg:upda :      0.08s CPU      0.08s WALL (    1533 calls)
     cegterg:last :      0.12s CPU      0.12s WALL (    1438 calls)
     h_psi        :      4.38s CPU      4.39s WALL (    2109 calls)
     g_psi        :      0.03s CPU      0.03s WALL (    1533 calls)

     Called by h_psi:
     h_psi:calbec :      0.49s CPU      0.50s WALL (    2109 calls)
     vloc_psi     :      3.47s CPU      3.48s WALL (    2109 calls)
     add_vuspsi   :      0.40s CPU      0.40s WALL (    2109 calls)

     General routines
     calbec       :      0.54s CPU      0.54s WALL (    2269 calls)
     fft          :      0.44s CPU      0.45s WALL (     157 calls)
     ffts         :      0.15s CPU      0.15s WALL (      68 calls)
     fftw         :      2.97s CPU      2.98s WALL (   17056 calls)
     interpolate  :      0.20s CPU      0.20s WALL (      34 calls)

     Parallel routines

     PWSCF        :      8.63s CPU      8.84s WALL


   This run was terminated on:  15:42: 9   3Sep2024            

=------------------------------------------------------------------------------=
   JOB DONE.
=------------------------------------------------------------------------------=
