
     Program PWSCF v.7.3.1 starts on 10Sep2024 at 11:16:26 

     This program is part of the open-source Quantum ESPRESSO suite
     for quantum simulation of materials; please cite
         "P. Giannozzi et al., J. Phys.:Condens. Matter 21 395502 (2009);
         "P. Giannozzi et al., J. Phys.:Condens. Matter 29 465901 (2017);
         "P. Giannozzi et al., J. Chem. Phys. 152 154105 (2020);
          URL http://www.quantum-espresso.org", 
     in publications or presentations arising from this work. More details at
     http://www.quantum-espresso.org/quote

     Parallel version (MPI), running on     1 processors

     MPI processes distributed on     1 nodes
     4033 MiB available memory on the printing compute node when the environment starts

     Waiting for input...
     Reading input from standard input

     Current dimensions of program PWSCF are:
     Max number of different atomic species (ntypx) = 10
     Max number of k-points (npk) =  40000
     Max angular momentum in pseudopotentials (lmaxx) =  4
     Message from routine volume:
     axis vectors are left-handed

     Subspace diagonalization in iterative solution of the eigenvalue problem:
     a serial algorithm will be used


     G-vector sticks info
     --------------------
     sticks:   dense  smooth     PW     G-vecs:    dense   smooth      PW
     Sum         433     433    139                 5985     5985    1067

     Using Slab Decomposition



     bravais-lattice index     =            0
     lattice parameter (alat)  =       7.2571  a.u.
     unit-cell volume          =     270.2504 (a.u.)^3
     number of atoms/cell      =            2
     number of atomic types    =            1
     number of electrons       =         8.00 (up:   4.00, down:   4.00)
     number of Kohn-Sham states=            4
     kinetic-energy cutoff     =      30.0000  Ry
     charge density cutoff     =     120.0000  Ry
     scf convergence threshold =      4.0E-10
     mixing beta               =       0.4000
     number of iterations used =            8  plain     mixing
     Exchange-correlation= SLA  PW   NOGX NOGC
                           (   1   4   0   0   0   0   0)

     celldm(1)=   7.257056  celldm(2)=   0.000000  celldm(3)=   0.000000
     celldm(4)=   0.000000  celldm(5)=   0.000000  celldm(6)=   0.000000

     crystal axes: (cart. coord. in units of alat)
               a(1) = (   0.707107   0.707107   0.000000 )  
               a(2) = (   0.707107   0.000000   0.707107 )  
               a(3) = (   0.000000   0.707107   0.707107 )  

     reciprocal axes: (cart. coord. in units 2 pi/alat)
               b(1) = (  0.707107  0.707107 -0.707107 )  
               b(2) = (  0.707107 -0.707107  0.707107 )  
               b(3) = ( -0.707107  0.707107  0.707107 )  


     PseudoPot. # 1 for Si read from file:
     ./pseudo/Si_lda.upf
     MD5 check sum: 9e2d726316af3d4752eea8ab0afbb951
     Pseudo is Norm-conserving + core correction, Zval =  4.0
     Generated using ONCVPSP code by D. R. Hamann
     Using radial grid of 1510 points,  6 beta functions with: 
                l(1) =   0
                l(2) =   0
                l(3) =   1
                l(4) =   1
                l(5) =   2
                l(6) =   2

     atomic species   valence    mass     pseudopotential
     Si                4.00    28.08550     Si( 1.00)

     Starting magnetic structure 
     atomic species   magnetization
     Si              0.000

     No symmetry found


                                    s                        frac. trans.

      isym =  1     identity                                     

 cryst.   s( 1) = (     1          0          0      )
                  (     0          1          0      )
                  (     0          0          1      )

 cart.    s( 1) = (  1.0000000  0.0000000  0.0000000 )
                  (  0.0000000  1.0000000  0.0000000 )
                  (  0.0000000  0.0000000  1.0000000 )


   Cartesian axes

     site n.     atom                  positions (alat units)
         1        Si     tau(   1) = (   0.0000000   0.0000000   0.0000000  )
         2        Si     tau(   2) = (   0.3535534   0.3535534   0.3535534  )

   Crystallographic axes

     site n.     atom                  positions (cryst. coord.)
         1        Si     tau(   1) = (  0.0000000  0.0000000  0.0000000  )
         2        Si     tau(   2) = (  0.2500000  0.2500000  0.2500000  )

     number of k points=    27
                       cart. coord. in units 2pi/alat
        k(    1) = (   0.0000000   0.0000000   0.0000000), wk =   0.0370370
        k(    2) = (  -0.2357023   0.2357023   0.2357023), wk =   0.0370370
        k(    3) = (   0.2357023  -0.2357023  -0.2357023), wk =   0.0370370
        k(    4) = (   0.2357023  -0.2357023   0.2357023), wk =   0.0370370
        k(    5) = (   0.0000000   0.0000000   0.4714045), wk =   0.0370370
        k(    6) = (   0.4714045  -0.4714045  -0.0000000), wk =   0.0370370
        k(    7) = (  -0.2357023   0.2357023  -0.2357023), wk =   0.0370370
        k(    8) = (  -0.4714045   0.4714045  -0.0000000), wk =   0.0370370
        k(    9) = (   0.0000000   0.0000000  -0.4714045), wk =   0.0370370
        k(   10) = (   0.2357023   0.2357023  -0.2357023), wk =   0.0370370
        k(   11) = (   0.0000000   0.4714045   0.0000000), wk =   0.0370370
        k(   12) = (   0.4714045  -0.0000000  -0.4714045), wk =   0.0370370
        k(   13) = (   0.4714045   0.0000000   0.0000000), wk =   0.0370370
        k(   14) = (   0.2357023   0.2357023   0.2357023), wk =   0.0370370
        k(   15) = (   0.7071068  -0.2357023  -0.2357023), wk =   0.0370370
        k(   16) = (  -0.0000000   0.4714045  -0.4714045), wk =   0.0370370
        k(   17) = (  -0.2357023   0.7071068  -0.2357023), wk =   0.0370370
        k(   18) = (   0.2357023   0.2357023  -0.7071068), wk =   0.0370370
        k(   19) = (  -0.2357023  -0.2357023   0.2357023), wk =   0.0370370
        k(   20) = (  -0.4714045  -0.0000000   0.4714045), wk =   0.0370370
        k(   21) = (   0.0000000  -0.4714045   0.0000000), wk =   0.0370370
        k(   22) = (  -0.0000000  -0.4714045   0.4714045), wk =   0.0370370
        k(   23) = (  -0.2357023  -0.2357023   0.7071068), wk =   0.0370370
        k(   24) = (   0.2357023  -0.7071068   0.2357023), wk =   0.0370370
        k(   25) = (  -0.4714045   0.0000000   0.0000000), wk =   0.0370370
        k(   26) = (  -0.7071068   0.2357023   0.2357023), wk =   0.0370370
        k(   27) = (  -0.2357023  -0.2357023  -0.2357023), wk =   0.0370370

                       cryst. coord.
        k(    1) = (   0.0000000   0.0000000   0.0000000), wk =   0.0370370
        k(    2) = (   0.0000000   0.0000000   0.3333333), wk =   0.0370370
        k(    3) = (   0.0000000   0.0000000  -0.3333333), wk =   0.0370370
        k(    4) = (   0.0000000   0.3333333   0.0000000), wk =   0.0370370
        k(    5) = (   0.0000000   0.3333333   0.3333333), wk =   0.0370370
        k(    6) = (   0.0000000   0.3333333  -0.3333333), wk =   0.0370370
        k(    7) = (   0.0000000  -0.3333333   0.0000000), wk =   0.0370370
        k(    8) = (   0.0000000  -0.3333333   0.3333333), wk =   0.0370370
        k(    9) = (   0.0000000  -0.3333333  -0.3333333), wk =   0.0370370
        k(   10) = (   0.3333333   0.0000000   0.0000000), wk =   0.0370370
        k(   11) = (   0.3333333   0.0000000   0.3333333), wk =   0.0370370
        k(   12) = (   0.3333333   0.0000000  -0.3333333), wk =   0.0370370
        k(   13) = (   0.3333333   0.3333333   0.0000000), wk =   0.0370370
        k(   14) = (   0.3333333   0.3333333   0.3333333), wk =   0.0370370
        k(   15) = (   0.3333333   0.3333333  -0.3333333), wk =   0.0370370
        k(   16) = (   0.3333333  -0.3333333   0.0000000), wk =   0.0370370
        k(   17) = (   0.3333333  -0.3333333   0.3333333), wk =   0.0370370
        k(   18) = (   0.3333333  -0.3333333  -0.3333333), wk =   0.0370370
        k(   19) = (  -0.3333333   0.0000000   0.0000000), wk =   0.0370370
        k(   20) = (  -0.3333333   0.0000000   0.3333333), wk =   0.0370370
        k(   21) = (  -0.3333333   0.0000000  -0.3333333), wk =   0.0370370
        k(   22) = (  -0.3333333   0.3333333   0.0000000), wk =   0.0370370
        k(   23) = (  -0.3333333   0.3333333   0.3333333), wk =   0.0370370
        k(   24) = (  -0.3333333   0.3333333  -0.3333333), wk =   0.0370370
        k(   25) = (  -0.3333333  -0.3333333   0.0000000), wk =   0.0370370
        k(   26) = (  -0.3333333  -0.3333333   0.3333333), wk =   0.0370370
        k(   27) = (  -0.3333333  -0.3333333  -0.3333333), wk =   0.0370370

     Dense  grid:     5985 G-vectors     FFT dimensions: (  25,  25,  25)

     Dynamical RAM for                 wfc:       0.05 MB

     Dynamical RAM for     wfc (w. buffer):       2.52 MB

     Dynamical RAM for           str. fact:       0.09 MB

     Dynamical RAM for           local pot:       0.00 MB

     Dynamical RAM for          nlocal pot:       0.41 MB

     Dynamical RAM for                qrad:       0.88 MB

     Dynamical RAM for          rho,v,vnew:       1.26 MB

     Dynamical RAM for               rhoin:       0.42 MB

     Dynamical RAM for            rho*nmix:       2.92 MB

     Dynamical RAM for           G-vectors:       0.39 MB

     Dynamical RAM for          h,s,v(r/c):       0.00 MB

     Dynamical RAM for          <psi|beta>:       0.00 MB

     Dynamical RAM for                 psi:       0.09 MB

     Dynamical RAM for                hpsi:       0.09 MB

     Dynamical RAM for      wfcinit/wfcrot:       0.18 MB

     Estimated static dynamical RAM per process >       6.87 MB

     Estimated max dynamical RAM per process >       9.98 MB
     Generating pointlists ...
     new r_m :   0.2526 (alat units)  1.8332 (a.u.) for type    1

     Initial potential from superposition of free atoms

     starting charge       7.9989, renormalised to       8.0000
     Starting wfcs are    8 randomized atomic wfcs

     total cpu time spent up to now is        0.3 secs

     Self-consistent Calculation

     iteration #  1     ecut=    30.00 Ry     beta= 0.40
     Davidson diagonalization with overlap

---- Real-time Memory Report at c_bands before calling an iterative solver
            34 MiB given to the printing process from OS
             0 MiB allocation reported by mallinfo(arena+hblkhd)
          4014 MiB available memory on the node where the printing process lives
------------------
     ethr =  1.00E-02,  avg # of iterations =  2.0

     Threshold (ethr) on eigenvalues was too large:
     Diagonalizing with lowered threshold

     Davidson diagonalization with overlap

---- Real-time Memory Report at c_bands before calling an iterative solver
            35 MiB given to the printing process from OS
             0 MiB allocation reported by mallinfo(arena+hblkhd)
          4013 MiB available memory on the node where the printing process lives
------------------
     ethr =  7.77E-04,  avg # of iterations =  1.8

     total cpu time spent up to now is        0.5 secs

     total energy              =     -17.00752678 Ry
     estimated scf accuracy    <       0.07127168 Ry

     total magnetization       =    -0.00 Bohr mag/cell
     absolute magnetization    =     0.00 Bohr mag/cell

     iteration #  2     ecut=    30.00 Ry     beta= 0.40
     Davidson diagonalization with overlap

---- Real-time Memory Report at c_bands before calling an iterative solver
            38 MiB given to the printing process from OS
             0 MiB allocation reported by mallinfo(arena+hblkhd)
          4010 MiB available memory on the node where the printing process lives
------------------
     ethr =  8.91E-04,  avg # of iterations =  1.0

     total cpu time spent up to now is        0.6 secs

     total energy              =     -17.00080842 Ry
     estimated scf accuracy    <       0.02188934 Ry

     total magnetization       =     0.00 Bohr mag/cell
     absolute magnetization    =     0.00 Bohr mag/cell

     iteration #  3     ecut=    30.00 Ry     beta= 0.40
     Davidson diagonalization with overlap

---- Real-time Memory Report at c_bands before calling an iterative solver
            39 MiB given to the printing process from OS
             0 MiB allocation reported by mallinfo(arena+hblkhd)
          4009 MiB available memory on the node where the printing process lives
------------------
     ethr =  2.74E-04,  avg # of iterations =  2.0

     total cpu time spent up to now is        0.8 secs

     total energy              =     -17.00307228 Ry
     estimated scf accuracy    <       0.00052205 Ry

     total magnetization       =     0.00 Bohr mag/cell
     absolute magnetization    =     0.00 Bohr mag/cell

     iteration #  4     ecut=    30.00 Ry     beta= 0.40
     Davidson diagonalization with overlap

---- Real-time Memory Report at c_bands before calling an iterative solver
            39 MiB given to the printing process from OS
             0 MiB allocation reported by mallinfo(arena+hblkhd)
          4007 MiB available memory on the node where the printing process lives
------------------
     ethr =  6.53E-06,  avg # of iterations =  2.3

     total cpu time spent up to now is        0.9 secs

     total energy              =     -17.00318887 Ry
     estimated scf accuracy    <       0.00021544 Ry

     total magnetization       =     0.00 Bohr mag/cell
     absolute magnetization    =     0.00 Bohr mag/cell

     iteration #  5     ecut=    30.00 Ry     beta= 0.40
     Davidson diagonalization with overlap

---- Real-time Memory Report at c_bands before calling an iterative solver
            39 MiB given to the printing process from OS
             0 MiB allocation reported by mallinfo(arena+hblkhd)
          4006 MiB available memory on the node where the printing process lives
------------------
     ethr =  2.69E-06,  avg # of iterations =  1.3

     total cpu time spent up to now is        1.1 secs

     total energy              =     -17.00320651 Ry
     estimated scf accuracy    <       0.00000113 Ry

     total magnetization       =     0.00 Bohr mag/cell
     absolute magnetization    =     0.00 Bohr mag/cell

     iteration #  6     ecut=    30.00 Ry     beta= 0.40
     Davidson diagonalization with overlap

---- Real-time Memory Report at c_bands before calling an iterative solver
            40 MiB given to the printing process from OS
             0 MiB allocation reported by mallinfo(arena+hblkhd)
          4005 MiB available memory on the node where the printing process lives
------------------
     ethr =  1.41E-08,  avg # of iterations =  8.1

     total cpu time spent up to now is        1.4 secs

     total energy              =     -17.00321377 Ry
     estimated scf accuracy    <       0.00000396 Ry

     total magnetization       =    -0.00 Bohr mag/cell
     absolute magnetization    =     0.00 Bohr mag/cell

     iteration #  7     ecut=    30.00 Ry     beta= 0.40
     Davidson diagonalization with overlap

---- Real-time Memory Report at c_bands before calling an iterative solver
            40 MiB given to the printing process from OS
             0 MiB allocation reported by mallinfo(arena+hblkhd)
          4006 MiB available memory on the node where the printing process lives
------------------
     ethr =  1.41E-08,  avg # of iterations =  2.0

     total cpu time spent up to now is        1.5 secs

     total energy              =     -17.00321377 Ry
     estimated scf accuracy    <       0.00000049 Ry

     total magnetization       =     0.00 Bohr mag/cell
     absolute magnetization    =     0.00 Bohr mag/cell

     iteration #  8     ecut=    30.00 Ry     beta= 0.40
     Davidson diagonalization with overlap

---- Real-time Memory Report at c_bands before calling an iterative solver
            41 MiB given to the printing process from OS
             0 MiB allocation reported by mallinfo(arena+hblkhd)
          4005 MiB available memory on the node where the printing process lives
------------------
     ethr =  6.18E-09,  avg # of iterations =  1.2

     total cpu time spent up to now is        1.7 secs

     total energy              =     -17.00321376 Ry
     estimated scf accuracy    <       0.00000010 Ry

     total magnetization       =    -0.00 Bohr mag/cell
     absolute magnetization    =     0.00 Bohr mag/cell

     iteration #  9     ecut=    30.00 Ry     beta= 0.40
     Davidson diagonalization with overlap

---- Real-time Memory Report at c_bands before calling an iterative solver
            41 MiB given to the printing process from OS
             0 MiB allocation reported by mallinfo(arena+hblkhd)
          4005 MiB available memory on the node where the printing process lives
------------------
     ethr =  1.20E-09,  avg # of iterations =  2.1

     total cpu time spent up to now is        1.8 secs

     total energy              =     -17.00321378 Ry
     estimated scf accuracy    <          1.6E-09 Ry

     total magnetization       =    -0.00 Bohr mag/cell
     absolute magnetization    =     0.00 Bohr mag/cell

     iteration # 10     ecut=    30.00 Ry     beta= 0.40
     Davidson diagonalization with overlap

---- Real-time Memory Report at c_bands before calling an iterative solver
            41 MiB given to the printing process from OS
             0 MiB allocation reported by mallinfo(arena+hblkhd)
          4005 MiB available memory on the node where the printing process lives
------------------
     ethr =  1.95E-11,  avg # of iterations =  6.3

     total cpu time spent up to now is        2.1 secs

     total energy              =     -17.00321378 Ry
     estimated scf accuracy    <          1.5E-09 Ry

     total magnetization       =     0.00 Bohr mag/cell
     absolute magnetization    =     0.00 Bohr mag/cell

     iteration # 11     ecut=    30.00 Ry     beta= 0.40
     Davidson diagonalization with overlap

---- Real-time Memory Report at c_bands before calling an iterative solver
            41 MiB given to the printing process from OS
             0 MiB allocation reported by mallinfo(arena+hblkhd)
          4005 MiB available memory on the node where the printing process lives
------------------
     ethr =  1.92E-11,  avg # of iterations =  1.0

     total cpu time spent up to now is        2.2 secs

     total energy              =     -17.00321378 Ry
     estimated scf accuracy    <          3.1E-09 Ry

     total magnetization       =     0.00 Bohr mag/cell
     absolute magnetization    =     0.00 Bohr mag/cell

     iteration # 12     ecut=    30.00 Ry     beta= 0.40
     Davidson diagonalization with overlap

---- Real-time Memory Report at c_bands before calling an iterative solver
            41 MiB given to the printing process from OS
             0 MiB allocation reported by mallinfo(arena+hblkhd)
          4005 MiB available memory on the node where the printing process lives
------------------
     ethr =  1.92E-11,  avg # of iterations =  2.0

     Magnetic moment per site  (integrated on atomic sphere of radius R)
     atom   1 (R=0.253)  charge=  1.8460  magn= -0.0000
     atom   2 (R=0.253)  charge=  1.8488  magn=  0.0000

     total cpu time spent up to now is        2.3 secs

     End of self-consistent calculation

 ------ SPIN UP ------------


          k = 0.0000 0.0000 0.0000 (   749 PWs)   bands (ev):

    -5.8473   6.1424   6.1424   6.1424

     occupation numbers 
     1.0000   1.0000   1.0000   1.0000

          k =-0.2357 0.2357 0.2357 (   757 PWs)   bands (ev):

    -4.4660   0.7616   5.1334   5.1334

     occupation numbers 
     1.0000   1.0000   1.0000   1.0000

          k = 0.2357-0.2357-0.2357 (   757 PWs)   bands (ev):

    -4.4660   0.7616   5.1334   5.1334

     occupation numbers 
     1.0000   1.0000   1.0000   1.0000

          k = 0.2357-0.2357 0.2357 (   757 PWs)   bands (ev):

    -4.4660   0.7616   5.1334   5.1334

     occupation numbers 
     1.0000   1.0000   1.0000   1.0000

          k = 0.0000 0.0000 0.4714 (   749 PWs)   bands (ev):

    -3.9396   1.1105   3.6997   3.6997

     occupation numbers 
     1.0000   1.0000   1.0000   1.0000

          k = 0.4714-0.4714-0.0000 (   740 PWs)   bands (ev):

    -2.5693  -0.6525   1.6545   4.0101

     occupation numbers 
     1.0000   1.0000   1.0000   1.0000

          k =-0.2357 0.2357-0.2357 (   757 PWs)   bands (ev):

    -4.4660   0.7616   5.1334   5.1334

     occupation numbers 
     1.0000   1.0000   1.0000   1.0000

          k =-0.4714 0.4714-0.0000 (   740 PWs)   bands (ev):

    -2.5693  -0.6525   1.6545   4.0101

     occupation numbers 
     1.0000   1.0000   1.0000   1.0000

          k = 0.0000 0.0000-0.4714 (   749 PWs)   bands (ev):

    -3.9396   1.1105   3.6997   3.6997

     occupation numbers 
     1.0000   1.0000   1.0000   1.0000

          k = 0.2357 0.2357-0.2357 (   757 PWs)   bands (ev):

    -4.4660   0.7616   5.1334   5.1334

     occupation numbers 
     1.0000   1.0000   1.0000   1.0000

          k = 0.0000 0.4714 0.0000 (   749 PWs)   bands (ev):

    -3.9396   1.1105   3.6997   3.6997

     occupation numbers 
     1.0000   1.0000   1.0000   1.0000

          k = 0.4714-0.0000-0.4714 (   740 PWs)   bands (ev):

    -2.5693  -0.6525   1.6545   4.0101

     occupation numbers 
     1.0000   1.0000   1.0000   1.0000

          k = 0.4714 0.0000 0.0000 (   749 PWs)   bands (ev):

    -3.9396   1.1105   3.6997   3.6997

     occupation numbers 
     1.0000   1.0000   1.0000   1.0000

          k = 0.2357 0.2357 0.2357 (   757 PWs)   bands (ev):

    -4.4660   0.7616   5.1334   5.1334

     occupation numbers 
     1.0000   1.0000   1.0000   1.0000

          k = 0.7071-0.2357-0.2357 (   740 PWs)   bands (ev):

    -2.5693  -0.6525   1.6545   4.0101

     occupation numbers 
     1.0000   1.0000   1.0000   1.0000

          k =-0.0000 0.4714-0.4714 (   740 PWs)   bands (ev):

    -2.5693  -0.6525   1.6545   4.0101

     occupation numbers 
     1.0000   1.0000   1.0000   1.0000

          k =-0.2357 0.7071-0.2357 (   740 PWs)   bands (ev):

    -2.5693  -0.6525   1.6545   4.0101

     occupation numbers 
     1.0000   1.0000   1.0000   1.0000

          k = 0.2357 0.2357-0.7071 (   740 PWs)   bands (ev):

    -2.5693  -0.6525   1.6545   4.0101

     occupation numbers 
     1.0000   1.0000   1.0000   1.0000

          k =-0.2357-0.2357 0.2357 (   757 PWs)   bands (ev):

    -4.4660   0.7616   5.1334   5.1334

     occupation numbers 
     1.0000   1.0000   1.0000   1.0000

          k =-0.4714-0.0000 0.4714 (   740 PWs)   bands (ev):

    -2.5693  -0.6525   1.6545   4.0101

     occupation numbers 
     1.0000   1.0000   1.0000   1.0000

          k = 0.0000-0.4714 0.0000 (   749 PWs)   bands (ev):

    -3.9396   1.1105   3.6997   3.6997

     occupation numbers 
     1.0000   1.0000   1.0000   1.0000

          k =-0.0000-0.4714 0.4714 (   740 PWs)   bands (ev):

    -2.5693  -0.6525   1.6545   4.0101

     occupation numbers 
     1.0000   1.0000   1.0000   1.0000

          k =-0.2357-0.2357 0.7071 (   740 PWs)   bands (ev):

    -2.5693  -0.6525   1.6545   4.0101

     occupation numbers 
     1.0000   1.0000   1.0000   1.0000

          k = 0.2357-0.7071 0.2357 (   740 PWs)   bands (ev):

    -2.5693  -0.6525   1.6545   4.0101

     occupation numbers 
     1.0000   1.0000   1.0000   1.0000

          k =-0.4714 0.0000 0.0000 (   749 PWs)   bands (ev):

    -3.9396   1.1105   3.6997   3.6997

     occupation numbers 
     1.0000   1.0000   1.0000   1.0000

          k =-0.7071 0.2357 0.2357 (   740 PWs)   bands (ev):

    -2.5693  -0.6525   1.6545   4.0101

     occupation numbers 
     1.0000   1.0000   1.0000   1.0000

          k =-0.2357-0.2357-0.2357 (   757 PWs)   bands (ev):

    -4.4660   0.7616   5.1334   5.1334

     occupation numbers 
     1.0000   1.0000   1.0000   1.0000

 ------ SPIN DOWN ----------


          k = 0.0000 0.0000 0.0000 (   749 PWs)   bands (ev):

    -5.8473   6.1424   6.1424   6.1424

     occupation numbers 
     1.0000   1.0000   1.0000   1.0000

          k =-0.2357 0.2357 0.2357 (   757 PWs)   bands (ev):

    -4.4660   0.7616   5.1334   5.1334

     occupation numbers 
     1.0000   1.0000   1.0000   1.0000

          k = 0.2357-0.2357-0.2357 (   757 PWs)   bands (ev):

    -4.4660   0.7616   5.1334   5.1334

     occupation numbers 
     1.0000   1.0000   1.0000   1.0000

          k = 0.2357-0.2357 0.2357 (   757 PWs)   bands (ev):

    -4.4660   0.7616   5.1334   5.1334

     occupation numbers 
     1.0000   1.0000   1.0000   1.0000

          k = 0.0000 0.0000 0.4714 (   749 PWs)   bands (ev):

    -3.9396   1.1105   3.6997   3.6997

     occupation numbers 
     1.0000   1.0000   1.0000   1.0000

          k = 0.4714-0.4714-0.0000 (   740 PWs)   bands (ev):

    -2.5693  -0.6525   1.6545   4.0101

     occupation numbers 
     1.0000   1.0000   1.0000   1.0000

          k =-0.2357 0.2357-0.2357 (   757 PWs)   bands (ev):

    -4.4660   0.7616   5.1334   5.1334

     occupation numbers 
     1.0000   1.0000   1.0000   1.0000

          k =-0.4714 0.4714-0.0000 (   740 PWs)   bands (ev):

    -2.5693  -0.6525   1.6545   4.0101

     occupation numbers 
     1.0000   1.0000   1.0000   1.0000

          k = 0.0000 0.0000-0.4714 (   749 PWs)   bands (ev):

    -3.9396   1.1105   3.6997   3.6997

     occupation numbers 
     1.0000   1.0000   1.0000   1.0000

          k = 0.2357 0.2357-0.2357 (   757 PWs)   bands (ev):

    -4.4660   0.7616   5.1334   5.1334

     occupation numbers 
     1.0000   1.0000   1.0000   1.0000

          k = 0.0000 0.4714 0.0000 (   749 PWs)   bands (ev):

    -3.9396   1.1105   3.6997   3.6997

     occupation numbers 
     1.0000   1.0000   1.0000   1.0000

          k = 0.4714-0.0000-0.4714 (   740 PWs)   bands (ev):

    -2.5693  -0.6525   1.6545   4.0101

     occupation numbers 
     1.0000   1.0000   1.0000   1.0000

          k = 0.4714 0.0000 0.0000 (   749 PWs)   bands (ev):

    -3.9396   1.1105   3.6997   3.6997

     occupation numbers 
     1.0000   1.0000   1.0000   1.0000

          k = 0.2357 0.2357 0.2357 (   757 PWs)   bands (ev):

    -4.4660   0.7616   5.1334   5.1334

     occupation numbers 
     1.0000   1.0000   1.0000   1.0000

          k = 0.7071-0.2357-0.2357 (   740 PWs)   bands (ev):

    -2.5693  -0.6525   1.6545   4.0101

     occupation numbers 
     1.0000   1.0000   1.0000   1.0000

          k =-0.0000 0.4714-0.4714 (   740 PWs)   bands (ev):

    -2.5693  -0.6525   1.6545   4.0101

     occupation numbers 
     1.0000   1.0000   1.0000   1.0000

          k =-0.2357 0.7071-0.2357 (   740 PWs)   bands (ev):

    -2.5693  -0.6525   1.6545   4.0101

     occupation numbers 
     1.0000   1.0000   1.0000   1.0000

          k = 0.2357 0.2357-0.7071 (   740 PWs)   bands (ev):

    -2.5693  -0.6525   1.6545   4.0101

     occupation numbers 
     1.0000   1.0000   1.0000   1.0000

          k =-0.2357-0.2357 0.2357 (   757 PWs)   bands (ev):

    -4.4660   0.7616   5.1334   5.1334

     occupation numbers 
     1.0000   1.0000   1.0000   1.0000

          k =-0.4714-0.0000 0.4714 (   740 PWs)   bands (ev):

    -2.5693  -0.6525   1.6545   4.0101

     occupation numbers 
     1.0000   1.0000   1.0000   1.0000

          k = 0.0000-0.4714 0.0000 (   749 PWs)   bands (ev):

    -3.9396   1.1105   3.6997   3.6997

     occupation numbers 
     1.0000   1.0000   1.0000   1.0000

          k =-0.0000-0.4714 0.4714 (   740 PWs)   bands (ev):

    -2.5693  -0.6525   1.6545   4.0101

     occupation numbers 
     1.0000   1.0000   1.0000   1.0000

          k =-0.2357-0.2357 0.7071 (   740 PWs)   bands (ev):

    -2.5693  -0.6525   1.6545   4.0101

     occupation numbers 
     1.0000   1.0000   1.0000   1.0000

          k = 0.2357-0.7071 0.2357 (   740 PWs)   bands (ev):

    -2.5693  -0.6525   1.6545   4.0101

     occupation numbers 
     1.0000   1.0000   1.0000   1.0000

          k =-0.4714 0.0000 0.0000 (   749 PWs)   bands (ev):

    -3.9396   1.1105   3.6997   3.6997

     occupation numbers 
     1.0000   1.0000   1.0000   1.0000

          k =-0.7071 0.2357 0.2357 (   740 PWs)   bands (ev):

    -2.5693  -0.6525   1.6545   4.0101

     occupation numbers 
     1.0000   1.0000   1.0000   1.0000

          k =-0.2357-0.2357-0.2357 (   757 PWs)   bands (ev):

    -4.4660   0.7616   5.1334   5.1334

     occupation numbers 
     1.0000   1.0000   1.0000   1.0000

     highest occupied level (ev):     6.1424

!    total energy              =     -17.00321378 Ry
     estimated scf accuracy    <          1.2E-10 Ry

     The total energy is the sum of the following terms:
     one-electron contribution =       4.86100956 Ry
     hartree contribution      =       1.15281387 Ry
     xc contribution           =      -6.22106290 Ry
     ewald contribution        =     -16.79597432 Ry

     total magnetization       =     0.00 Bohr mag/cell
     absolute magnetization    =     0.00 Bohr mag/cell

     convergence has been achieved in  12 iterations

     Forces acting on atoms (cartesian axes, Ry/au):

     atom    1 type  1   force =    -0.00000009    0.00000001   -0.00000002
     atom    2 type  1   force =     0.00000009   -0.00000001    0.00000002
     The non-local contrib.  to forces
     atom    1 type  1   force =     0.00000035   -0.00000044   -0.00000007
     atom    2 type  1   force =    -0.00000075   -0.00000045   -0.00000056
     The ionic contribution  to forces
     atom    1 type  1   force =     0.00000000    0.00000000    0.00000000
     atom    2 type  1   force =    -0.00000000   -0.00000000   -0.00000000
     The local contribution  to forces
     atom    1 type  1   force =    -0.00000055    0.00000058    0.00000014
     atom    2 type  1   force =     0.00000117    0.00000043    0.00000085
     The core correction contribution to forces
     atom    1 type  1   force =    -0.00000002    0.00000003    0.00000000
     atom    2 type  1   force =     0.00000005    0.00000002    0.00000004
     The Hubbard contrib.    to forces
     atom    1 type  1   force =     0.00000000    0.00000000    0.00000000
     atom    2 type  1   force =     0.00000000    0.00000000    0.00000000
     The SCF correction term to forces
     atom    1 type  1   force =     0.00000019   -0.00000017   -0.00000001
     atom    2 type  1   force =    -0.00000032   -0.00000003   -0.00000021

     Total force =     0.000000     Total SCF correction =     0.000000
     SCF correction compared to forces is large: reduce conv_thr to get better values


     Computing stress (Cartesian axis) and pressure

          total   stress  (Ry/bohr**3)                   (kbar)     P=       -0.66
  -0.00000448   0.00000000  -0.00000000           -0.66        0.00       -0.00
   0.00000000  -0.00000448   0.00000000            0.00       -0.66        0.00
  -0.00000000   0.00000000  -0.00000448           -0.00        0.00       -0.66

     kinetic stress (kbar)   2278.57      0.00     -0.00
                                0.00   2278.57      0.00
                               -0.00      0.00   2278.57

     local   stress (kbar)   -435.68      0.00     -0.00
                                0.00   -435.68      0.00
                               -0.00      0.00   -435.68

     nonloc. stress (kbar)   1955.80      0.00      0.00
                                0.00   1955.80     -0.00
                                0.00     -0.00   1955.80

     hartree stress (kbar)    209.17     -0.00      0.00
                               -0.00    209.17     -0.00
                                0.00     -0.00    209.17

     exc-cor stress (kbar)   -153.69      0.00      0.00
                                0.00   -153.69      0.00
                                0.00      0.00   -153.69

     corecor stress (kbar)   -807.31     -0.00     -0.00
                               -0.00   -807.31      0.00
                               -0.00      0.00   -807.31

     ewald   stress (kbar)  -3047.51     -0.00      0.00
                               -0.00  -3047.51     -0.00
                                0.00     -0.00  -3047.51

     hubbard stress (kbar)      0.00      0.00      0.00
                                0.00      0.00      0.00
                                0.00      0.00      0.00

     DFT-D   stress (kbar)      0.00      0.00      0.00
                                0.00      0.00      0.00
                                0.00      0.00      0.00

     XDM     stress (kbar)      0.00      0.00      0.00
                                0.00      0.00      0.00
                                0.00      0.00      0.00

     dft-nl  stress (kbar)      0.00      0.00      0.00
                                0.00      0.00      0.00
                                0.00      0.00      0.00

     TS-vdW  stress (kbar)      0.00      0.00      0.00
                                0.00      0.00      0.00
                                0.00      0.00      0.00

     MDB     stress (kbar)      0.00      0.00      0.00
                                0.00      0.00      0.00
                                0.00      0.00      0.00

     3D-RISM stress (kbar)      0.00      0.00      0.00
                                0.00      0.00      0.00
                                0.00      0.00      0.00


     Writing all to output data dir ./out/si_lda.save/ :
     XML data file, charge density, pseudopotentials, collected wavefunctions

     init_run     :      0.19s CPU      0.22s WALL (       1 calls)
     electrons    :      2.06s CPU      2.09s WALL (       1 calls)
     forces       :      0.03s CPU      0.03s WALL (       1 calls)
     stress       :      0.18s CPU      0.18s WALL (       1 calls)

     Called by init_run:
     wfcinit      :      0.10s CPU      0.11s WALL (       1 calls)
     wfcinit:atom :      0.00s CPU      0.00s WALL (      54 calls)
     wfcinit:wfcr :      0.08s CPU      0.09s WALL (      54 calls)
     potinit      :      0.01s CPU      0.01s WALL (       1 calls)
     hinit0       :      0.07s CPU      0.09s WALL (       1 calls)

     Called by electrons:
     c_bands      :      1.81s CPU      1.83s WALL (      13 calls)
     sum_band     :      0.21s CPU      0.22s WALL (      13 calls)
     v_of_rho     :      0.02s CPU      0.03s WALL (      13 calls)
     v_h          :      0.00s CPU      0.00s WALL (      13 calls)
     v_xc         :      0.03s CPU      0.03s WALL (      15 calls)
     mix_rho      :      0.01s CPU      0.01s WALL (      13 calls)

     Called by c_bands:
     init_us_2    :      0.18s CPU      0.18s WALL (    1566 calls)
     cegterg      :      1.40s CPU      1.42s WALL (     702 calls)

     Called by sum_band:
     sum_band:wei :      0.00s CPU      0.00s WALL (      13 calls)
     sum_band:loo :      0.20s CPU      0.21s WALL (      13 calls)
     sum_band:buf :      0.00s CPU      0.00s WALL (     702 calls)
     sum_band:ini :      0.08s CPU      0.08s WALL (     702 calls)

     Called by *egterg:
     cdiaghg      :      0.03s CPU      0.03s WALL (    2442 calls)
     cegterg:over :      0.05s CPU      0.06s WALL (    1794 calls)
     cegterg:upda :      0.03s CPU      0.03s WALL (    1794 calls)
     cegterg:last :      0.04s CPU      0.04s WALL (    1660 calls)
     h_psi        :      1.28s CPU      1.30s WALL (    2550 calls)
     g_psi        :      0.01s CPU      0.01s WALL (    1794 calls)

     Called by h_psi:
     h_psi:calbec :      0.19s CPU      0.19s WALL (    2550 calls)
     vloc_psi     :      0.92s CPU      0.94s WALL (    2550 calls)
     add_vuspsi   :      0.16s CPU      0.17s WALL (    2550 calls)

     General routines
     calbec       :      0.21s CPU      0.21s WALL (    2820 calls)
     fft          :      0.03s CPU      0.04s WALL (      73 calls)
     ffts         :      0.00s CPU      0.00s WALL (      26 calls)
     fftw         :      0.88s CPU      0.90s WALL (   21266 calls)

     Parallel routines

     PWSCF        :      2.47s CPU      2.57s WALL


   This run was terminated on:  11:16:29  10Sep2024            

=------------------------------------------------------------------------------=
   JOB DONE.
=------------------------------------------------------------------------------=
