
     Program PWSCF v.7.3.1 starts on 10Sep2024 at 10:19:42 

     This program is part of the open-source Quantum ESPRESSO suite
     for quantum simulation of materials; please cite
         "P. Giannozzi et al., J. Phys.:Condens. Matter 21 395502 (2009);
         "P. Giannozzi et al., J. Phys.:Condens. Matter 29 465901 (2017);
         "P. Giannozzi et al., J. Chem. Phys. 152 154105 (2020);
          URL http://www.quantum-espresso.org", 
     in publications or presentations arising from this work. More details at
     http://www.quantum-espresso.org/quote

     Parallel version (MPI), running on     1 processors

     MPI processes distributed on     1 nodes
     1247 MiB available memory on the printing compute node when the environment starts

     Waiting for input...
     Reading input from standard input

     Current dimensions of program PWSCF are:
     Max number of different atomic species (ntypx) = 10
     Max number of k-points (npk) =  40000
     Max angular momentum in pseudopotentials (lmaxx) =  4
     Message from routine volume:
     axis vectors are left-handed
     Message from routine setup:
     using ibrav=0 with symmetry is DISCOURAGED, use correct ibrav instead

     Subspace diagonalization in iterative solution of the eigenvalue problem:
     a serial algorithm will be used


     G-vector sticks info
     --------------------
     sticks:   dense  smooth     PW     G-vecs:    dense   smooth      PW
     Sum         433     433    151                 5985     5985    1139

     Using Slab Decomposition



     bravais-lattice index     =            0
     lattice parameter (alat)  =       7.2571  a.u.
     unit-cell volume          =     270.2504 (a.u.)^3
     number of atoms/cell      =            2
     number of atomic types    =            1
     number of electrons       =         8.00 (up:   4.00, down:   4.00)
     number of Kohn-Sham states=            4
     kinetic-energy cutoff     =      30.0000  Ry
     charge density cutoff     =     120.0000  Ry
     scf convergence threshold =      4.0E-10
     mixing beta               =       0.4000
     number of iterations used =            8  plain     mixing
     Exchange-correlation= SLA  PW   NOGX NOGC
                           (   1   4   0   0   0   0   0)

     celldm(1)=   7.257056  celldm(2)=   0.000000  celldm(3)=   0.000000
     celldm(4)=   0.000000  celldm(5)=   0.000000  celldm(6)=   0.000000

     crystal axes: (cart. coord. in units of alat)
               a(1) = (   0.707107   0.707107   0.000000 )  
               a(2) = (   0.707107   0.000000   0.707107 )  
               a(3) = (   0.000000   0.707107   0.707107 )  

     reciprocal axes: (cart. coord. in units 2 pi/alat)
               b(1) = (  0.707107  0.707107 -0.707107 )  
               b(2) = (  0.707107 -0.707107  0.707107 )  
               b(3) = ( -0.707107  0.707107  0.707107 )  


     PseudoPot. # 1 for Si read from file:
     ./pseudo/Si_lda.upf
     MD5 check sum: 9e2d726316af3d4752eea8ab0afbb951
     Pseudo is Norm-conserving + core correction, Zval =  4.0
     Generated using ONCVPSP code by D. R. Hamann
     Using radial grid of 1510 points,  6 beta functions with: 
                l(1) =   0
                l(2) =   0
                l(3) =   1
                l(4) =   1
                l(5) =   2
                l(6) =   2

     atomic species   valence    mass     pseudopotential
     Si                4.00    28.08550     Si( 1.00)

     Starting magnetic structure 
     atomic species   magnetization
     Si              0.000

     48 Sym. Ops., with inversion, found (24 have fractional translation)


                                    s                        frac. trans.

      isym =  1     identity                                     

 cryst.   s( 1) = (     1          0          0      )
                  (     0          1          0      )
                  (     0          0          1      )

 cart.    s( 1) = (  1.0000000  0.0000000  0.0000000 )
                  (  0.0000000  1.0000000  0.0000000 )
                  (  0.0000000  0.0000000  1.0000000 )


      isym =  2     180 deg rotation - cart. axis [0,0,1]        

 cryst.   s( 2) = (    -1          0          0      )
                  (    -1          0          1      )
                  (    -1          1          0      )

 cart.    s( 2) = ( -1.0000000  0.0000000  0.0000000 )
                  (  0.0000000 -1.0000000  0.0000000 )
                  (  0.0000000  0.0000000  1.0000000 )


      isym =  3     180 deg rotation - cart. axis [0,1,0]        

 cryst.   s( 3) = (     0         -1          1      )
                  (     0         -1          0      )
                  (     1         -1          0      )

 cart.    s( 3) = ( -1.0000000  0.0000000  0.0000000 )
                  (  0.0000000  1.0000000  0.0000000 )
                  (  0.0000000  0.0000000 -1.0000000 )


      isym =  4     180 deg rotation - cart. axis [1,0,0]        

 cryst.   s( 4) = (     0          1         -1      )
                  (     1          0         -1      )
                  (     0          0         -1      )

 cart.    s( 4) = (  1.0000000  0.0000000  0.0000000 )
                  (  0.0000000 -1.0000000  0.0000000 )
                  (  0.0000000  0.0000000 -1.0000000 )


      isym =  5     180 deg rotation - cart. axis [1,1,0]        

 cryst.   s( 5) = (     1          0          0      )    f =( -0.2500000 )
                  (     1         -1          0      )       ( -0.2500000 )
                  (     1          0         -1      )       ( -0.2500000 )

 cart.    s( 5) = (  0.0000000  1.0000000  0.0000000 )    f =( -0.3535534 )
                  (  1.0000000  0.0000000  0.0000000 )       ( -0.3535534 )
                  (  0.0000000  0.0000000 -1.0000000 )       ( -0.3535534 )


      isym =  6     180 deg rotation - cart. axis [1,-1,0]       

 cryst.   s( 6) = (    -1          0          0      )    f =( -0.2500000 )
                  (     0          0         -1      )       ( -0.2500000 )
                  (     0         -1          0      )       ( -0.2500000 )

 cart.    s( 6) = (  0.0000000 -1.0000000  0.0000000 )    f =( -0.3535534 )
                  ( -1.0000000  0.0000000  0.0000000 )       ( -0.3535534 )
                  (  0.0000000  0.0000000 -1.0000000 )       ( -0.3535534 )


      isym =  7      90 deg rotation - cart. axis [0,0,-1]       

 cryst.   s( 7) = (     0          1         -1      )    f =( -0.2500000 )
                  (    -1          1          0      )       ( -0.2500000 )
                  (     0          1          0      )       ( -0.2500000 )

 cart.    s( 7) = (  0.0000000  1.0000000  0.0000000 )    f =( -0.3535534 )
                  ( -1.0000000  0.0000000  0.0000000 )       ( -0.3535534 )
                  (  0.0000000  0.0000000  1.0000000 )       ( -0.3535534 )


      isym =  8      90 deg rotation - cart. axis [0,0,1]        

 cryst.   s( 8) = (     0         -1          1      )    f =( -0.2500000 )
                  (     0          0          1      )       ( -0.2500000 )
                  (    -1          0          1      )       ( -0.2500000 )

 cart.    s( 8) = (  0.0000000 -1.0000000  0.0000000 )    f =( -0.3535534 )
                  (  1.0000000  0.0000000  0.0000000 )       ( -0.3535534 )
                  (  0.0000000  0.0000000  1.0000000 )       ( -0.3535534 )


      isym =  9     180 deg rotation - cart. axis [1,0,1]        

 cryst.   s( 9) = (    -1          1          0      )    f =( -0.2500000 )
                  (     0          1          0      )       ( -0.2500000 )
                  (     0          1         -1      )       ( -0.2500000 )

 cart.    s( 9) = (  0.0000000  0.0000000  1.0000000 )    f =( -0.3535534 )
                  (  0.0000000 -1.0000000  0.0000000 )       ( -0.3535534 )
                  (  1.0000000  0.0000000  0.0000000 )       ( -0.3535534 )


      isym = 10     180 deg rotation - cart. axis [-1,0,1]       

 cryst.   s(10) = (     0          0         -1      )    f =( -0.2500000 )
                  (     0         -1          0      )       ( -0.2500000 )
                  (    -1          0          0      )       ( -0.2500000 )

 cart.    s(10) = (  0.0000000  0.0000000 -1.0000000 )    f =( -0.3535534 )
                  (  0.0000000 -1.0000000  0.0000000 )       ( -0.3535534 )
                  ( -1.0000000  0.0000000  0.0000000 )       ( -0.3535534 )


      isym = 11      90 deg rotation - cart. axis [0,1,0]        

 cryst.   s(11) = (     1         -1          0      )    f =( -0.2500000 )
                  (     1          0         -1      )       ( -0.2500000 )
                  (     1          0          0      )       ( -0.2500000 )

 cart.    s(11) = (  0.0000000  0.0000000  1.0000000 )    f =( -0.3535534 )
                  (  0.0000000  1.0000000  0.0000000 )       ( -0.3535534 )
                  ( -1.0000000  0.0000000  0.0000000 )       ( -0.3535534 )


      isym = 12      90 deg rotation - cart. axis [0,-1,0]       

 cryst.   s(12) = (     0          0          1      )    f =( -0.2500000 )
                  (    -1          0          1      )       ( -0.2500000 )
                  (     0         -1          1      )       ( -0.2500000 )

 cart.    s(12) = (  0.0000000  0.0000000 -1.0000000 )    f =( -0.3535534 )
                  (  0.0000000  1.0000000  0.0000000 )       ( -0.3535534 )
                  (  1.0000000  0.0000000  0.0000000 )       ( -0.3535534 )


      isym = 13     180 deg rotation - cart. axis [0,1,1]        

 cryst.   s(13) = (    -1          0          1      )    f =( -0.2500000 )
                  (     0         -1          1      )       ( -0.2500000 )
                  (     0          0          1      )       ( -0.2500000 )

 cart.    s(13) = ( -1.0000000  0.0000000  0.0000000 )    f =( -0.3535534 )
                  (  0.0000000  0.0000000  1.0000000 )       ( -0.3535534 )
                  (  0.0000000  1.0000000  0.0000000 )       ( -0.3535534 )


      isym = 14     180 deg rotation - cart. axis [0,1,-1]       

 cryst.   s(14) = (     0         -1          0      )    f =( -0.2500000 )
                  (    -1          0          0      )       ( -0.2500000 )
                  (     0          0         -1      )       ( -0.2500000 )

 cart.    s(14) = ( -1.0000000  0.0000000  0.0000000 )    f =( -0.3535534 )
                  (  0.0000000  0.0000000 -1.0000000 )       ( -0.3535534 )
                  (  0.0000000 -1.0000000  0.0000000 )       ( -0.3535534 )


      isym = 15      90 deg rotation - cart. axis [-1,0,0]       

 cryst.   s(15) = (     1          0         -1      )    f =( -0.2500000 )
                  (     1          0          0      )       ( -0.2500000 )
                  (     1         -1          0      )       ( -0.2500000 )

 cart.    s(15) = (  1.0000000  0.0000000  0.0000000 )    f =( -0.3535534 )
                  (  0.0000000  0.0000000  1.0000000 )       ( -0.3535534 )
                  (  0.0000000 -1.0000000  0.0000000 )       ( -0.3535534 )


      isym = 16      90 deg rotation - cart. axis [1,0,0]        

 cryst.   s(16) = (     0          1          0      )    f =( -0.2500000 )
                  (     0          1         -1      )       ( -0.2500000 )
                  (    -1          1          0      )       ( -0.2500000 )

 cart.    s(16) = (  1.0000000  0.0000000  0.0000000 )    f =( -0.3535534 )
                  (  0.0000000  0.0000000 -1.0000000 )       ( -0.3535534 )
                  (  0.0000000  1.0000000  0.0000000 )       ( -0.3535534 )


      isym = 17     120 deg rotation - cart. axis [-1,-1,-1]     

 cryst.   s(17) = (     0          1          0      )
                  (     0          0          1      )
                  (     1          0          0      )

 cart.    s(17) = (  0.0000000  1.0000000  0.0000000 )
                  (  0.0000000  0.0000000  1.0000000 )
                  (  1.0000000  0.0000000  0.0000000 )


      isym = 18     120 deg rotation - cart. axis [-1,1,1]       

 cryst.   s(18) = (     0         -1          0      )
                  (     1         -1          0      )
                  (     0         -1          1      )

 cart.    s(18) = (  0.0000000 -1.0000000  0.0000000 )
                  (  0.0000000  0.0000000  1.0000000 )
                  ( -1.0000000  0.0000000  0.0000000 )


      isym = 19     120 deg rotation - cart. axis [1,1,-1]       

 cryst.   s(19) = (     1          0         -1      )
                  (     0          0         -1      )
                  (     0          1         -1      )

 cart.    s(19) = (  0.0000000  1.0000000  0.0000000 )
                  (  0.0000000  0.0000000 -1.0000000 )
                  ( -1.0000000  0.0000000  0.0000000 )


      isym = 20     120 deg rotation - cart. axis [1,-1,1]       

 cryst.   s(20) = (    -1          0          1      )
                  (    -1          1          0      )
                  (    -1          0          0      )

 cart.    s(20) = (  0.0000000 -1.0000000  0.0000000 )
                  (  0.0000000  0.0000000 -1.0000000 )
                  (  1.0000000  0.0000000  0.0000000 )


      isym = 21     120 deg rotation - cart. axis [1,1,1]        

 cryst.   s(21) = (     0          0          1      )
                  (     1          0          0      )
                  (     0          1          0      )

 cart.    s(21) = (  0.0000000  0.0000000  1.0000000 )
                  (  1.0000000  0.0000000  0.0000000 )
                  (  0.0000000  1.0000000  0.0000000 )


      isym = 22     120 deg rotation - cart. axis [-1,1,-1]      

 cryst.   s(22) = (     0          0         -1      )
                  (     0          1         -1      )
                  (     1          0         -1      )

 cart.    s(22) = (  0.0000000  0.0000000  1.0000000 )
                  ( -1.0000000  0.0000000  0.0000000 )
                  (  0.0000000 -1.0000000  0.0000000 )


      isym = 23     120 deg rotation - cart. axis [1,-1,-1]      

 cryst.   s(23) = (    -1          1          0      )
                  (    -1          0          0      )
                  (    -1          0          1      )

 cart.    s(23) = (  0.0000000  0.0000000 -1.0000000 )
                  ( -1.0000000  0.0000000  0.0000000 )
                  (  0.0000000  1.0000000  0.0000000 )


      isym = 24     120 deg rotation - cart. axis [-1,-1,1]      

 cryst.   s(24) = (     1         -1          0      )
                  (     0         -1          1      )
                  (     0         -1          0      )

 cart.    s(24) = (  0.0000000  0.0000000 -1.0000000 )
                  (  1.0000000  0.0000000  0.0000000 )
                  (  0.0000000 -1.0000000  0.0000000 )


      isym = 25     inversion                                    

 cryst.   s(25) = (    -1          0          0      )    f =( -0.2500000 )
                  (     0         -1          0      )       ( -0.2500000 )
                  (     0          0         -1      )       ( -0.2500000 )

 cart.    s(25) = ( -1.0000000  0.0000000  0.0000000 )    f =( -0.3535534 )
                  (  0.0000000 -1.0000000  0.0000000 )       ( -0.3535534 )
                  (  0.0000000  0.0000000 -1.0000000 )       ( -0.3535534 )


      isym = 26     inv. 180 deg rotation - cart. axis [0,0,1]   

 cryst.   s(26) = (     1          0          0      )    f =( -0.2500000 )
                  (     1          0         -1      )       ( -0.2500000 )
                  (     1         -1          0      )       ( -0.2500000 )

 cart.    s(26) = (  1.0000000  0.0000000  0.0000000 )    f =( -0.3535534 )
                  (  0.0000000  1.0000000  0.0000000 )       ( -0.3535534 )
                  (  0.0000000  0.0000000 -1.0000000 )       ( -0.3535534 )


      isym = 27     inv. 180 deg rotation - cart. axis [0,1,0]   

 cryst.   s(27) = (     0          1         -1      )    f =( -0.2500000 )
                  (     0          1          0      )       ( -0.2500000 )
                  (    -1          1          0      )       ( -0.2500000 )

 cart.    s(27) = (  1.0000000  0.0000000  0.0000000 )    f =( -0.3535534 )
                  (  0.0000000 -1.0000000  0.0000000 )       ( -0.3535534 )
                  (  0.0000000  0.0000000  1.0000000 )       ( -0.3535534 )


      isym = 28     inv. 180 deg rotation - cart. axis [1,0,0]   

 cryst.   s(28) = (     0         -1          1      )    f =( -0.2500000 )
                  (    -1          0          1      )       ( -0.2500000 )
                  (     0          0          1      )       ( -0.2500000 )

 cart.    s(28) = ( -1.0000000  0.0000000  0.0000000 )    f =( -0.3535534 )
                  (  0.0000000  1.0000000  0.0000000 )       ( -0.3535534 )
                  (  0.0000000  0.0000000  1.0000000 )       ( -0.3535534 )


      isym = 29     inv. 180 deg rotation - cart. axis [1,1,0]   

 cryst.   s(29) = (    -1          0          0      )
                  (    -1          1          0      )
                  (    -1          0          1      )

 cart.    s(29) = (  0.0000000 -1.0000000  0.0000000 )
                  ( -1.0000000  0.0000000  0.0000000 )
                  (  0.0000000  0.0000000  1.0000000 )


      isym = 30     inv. 180 deg rotation - cart. axis [1,-1,0]  

 cryst.   s(30) = (     1          0          0      )
                  (     0          0          1      )
                  (     0          1          0      )

 cart.    s(30) = (  0.0000000  1.0000000  0.0000000 )
                  (  1.0000000  0.0000000  0.0000000 )
                  (  0.0000000  0.0000000  1.0000000 )


      isym = 31     inv.  90 deg rotation - cart. axis [0,0,-1]  

 cryst.   s(31) = (     0         -1          1      )
                  (     1         -1          0      )
                  (     0         -1          0      )

 cart.    s(31) = (  0.0000000 -1.0000000  0.0000000 )
                  (  1.0000000  0.0000000  0.0000000 )
                  (  0.0000000  0.0000000 -1.0000000 )


      isym = 32     inv.  90 deg rotation - cart. axis [0,0,1]   

 cryst.   s(32) = (     0          1         -1      )
                  (     0          0         -1      )
                  (     1          0         -1      )

 cart.    s(32) = (  0.0000000  1.0000000  0.0000000 )
                  ( -1.0000000  0.0000000  0.0000000 )
                  (  0.0000000  0.0000000 -1.0000000 )


      isym = 33     inv. 180 deg rotation - cart. axis [1,0,1]   

 cryst.   s(33) = (     1         -1          0      )
                  (     0         -1          0      )
                  (     0         -1          1      )

 cart.    s(33) = (  0.0000000  0.0000000 -1.0000000 )
                  (  0.0000000  1.0000000  0.0000000 )
                  ( -1.0000000  0.0000000  0.0000000 )


      isym = 34     inv. 180 deg rotation - cart. axis [-1,0,1]  

 cryst.   s(34) = (     0          0          1      )
                  (     0          1          0      )
                  (     1          0          0      )

 cart.    s(34) = (  0.0000000  0.0000000  1.0000000 )
                  (  0.0000000  1.0000000  0.0000000 )
                  (  1.0000000  0.0000000  0.0000000 )


      isym = 35     inv.  90 deg rotation - cart. axis [0,1,0]   

 cryst.   s(35) = (    -1          1          0      )
                  (    -1          0          1      )
                  (    -1          0          0      )

 cart.    s(35) = (  0.0000000  0.0000000 -1.0000000 )
                  (  0.0000000 -1.0000000  0.0000000 )
                  (  1.0000000  0.0000000  0.0000000 )


      isym = 36     inv.  90 deg rotation - cart. axis [0,-1,0]  

 cryst.   s(36) = (     0          0         -1      )
                  (     1          0         -1      )
                  (     0          1         -1      )

 cart.    s(36) = (  0.0000000  0.0000000  1.0000000 )
                  (  0.0000000 -1.0000000  0.0000000 )
                  ( -1.0000000  0.0000000  0.0000000 )


      isym = 37     inv. 180 deg rotation - cart. axis [0,1,1]   

 cryst.   s(37) = (     1          0         -1      )
                  (     0          1         -1      )
                  (     0          0         -1      )

 cart.    s(37) = (  1.0000000  0.0000000  0.0000000 )
                  (  0.0000000  0.0000000 -1.0000000 )
                  (  0.0000000 -1.0000000  0.0000000 )


      isym = 38     inv. 180 deg rotation - cart. axis [0,1,-1]  

 cryst.   s(38) = (     0          1          0      )
                  (     1          0          0      )
                  (     0          0          1      )

 cart.    s(38) = (  1.0000000  0.0000000  0.0000000 )
                  (  0.0000000  0.0000000  1.0000000 )
                  (  0.0000000  1.0000000  0.0000000 )


      isym = 39     inv.  90 deg rotation - cart. axis [-1,0,0]  

 cryst.   s(39) = (    -1          0          1      )
                  (    -1          0          0      )
                  (    -1          1          0      )

 cart.    s(39) = ( -1.0000000  0.0000000  0.0000000 )
                  (  0.0000000  0.0000000 -1.0000000 )
                  (  0.0000000  1.0000000  0.0000000 )


      isym = 40     inv.  90 deg rotation - cart. axis [1,0,0]   

 cryst.   s(40) = (     0         -1          0      )
                  (     0         -1          1      )
                  (     1         -1          0      )

 cart.    s(40) = ( -1.0000000  0.0000000  0.0000000 )
                  (  0.0000000  0.0000000  1.0000000 )
                  (  0.0000000 -1.0000000  0.0000000 )


      isym = 41     inv. 120 deg rotation - cart. axis [-1,-1,-1]

 cryst.   s(41) = (     0         -1          0      )    f =( -0.2500000 )
                  (     0          0         -1      )       ( -0.2500000 )
                  (    -1          0          0      )       ( -0.2500000 )

 cart.    s(41) = (  0.0000000 -1.0000000  0.0000000 )    f =( -0.3535534 )
                  (  0.0000000  0.0000000 -1.0000000 )       ( -0.3535534 )
                  ( -1.0000000  0.0000000  0.0000000 )       ( -0.3535534 )


      isym = 42     inv. 120 deg rotation - cart. axis [-1,1,1]  

 cryst.   s(42) = (     0          1          0      )    f =( -0.2500000 )
                  (    -1          1          0      )       ( -0.2500000 )
                  (     0          1         -1      )       ( -0.2500000 )

 cart.    s(42) = (  0.0000000  1.0000000  0.0000000 )    f =( -0.3535534 )
                  (  0.0000000  0.0000000 -1.0000000 )       ( -0.3535534 )
                  (  1.0000000  0.0000000  0.0000000 )       ( -0.3535534 )


      isym = 43     inv. 120 deg rotation - cart. axis [1,1,-1]  

 cryst.   s(43) = (    -1          0          1      )    f =( -0.2500000 )
                  (     0          0          1      )       ( -0.2500000 )
                  (     0         -1          1      )       ( -0.2500000 )

 cart.    s(43) = (  0.0000000 -1.0000000  0.0000000 )    f =( -0.3535534 )
                  (  0.0000000  0.0000000  1.0000000 )       ( -0.3535534 )
                  (  1.0000000  0.0000000  0.0000000 )       ( -0.3535534 )


      isym = 44     inv. 120 deg rotation - cart. axis [1,-1,1]  

 cryst.   s(44) = (     1          0         -1      )    f =( -0.2500000 )
                  (     1         -1          0      )       ( -0.2500000 )
                  (     1          0          0      )       ( -0.2500000 )

 cart.    s(44) = (  0.0000000  1.0000000  0.0000000 )    f =( -0.3535534 )
                  (  0.0000000  0.0000000  1.0000000 )       ( -0.3535534 )
                  ( -1.0000000  0.0000000  0.0000000 )       ( -0.3535534 )


      isym = 45     inv. 120 deg rotation - cart. axis [1,1,1]   

 cryst.   s(45) = (     0          0         -1      )    f =( -0.2500000 )
                  (    -1          0          0      )       ( -0.2500000 )
                  (     0         -1          0      )       ( -0.2500000 )

 cart.    s(45) = (  0.0000000  0.0000000 -1.0000000 )    f =( -0.3535534 )
                  ( -1.0000000  0.0000000  0.0000000 )       ( -0.3535534 )
                  (  0.0000000 -1.0000000  0.0000000 )       ( -0.3535534 )


      isym = 46     inv. 120 deg rotation - cart. axis [-1,1,-1] 

 cryst.   s(46) = (     0          0          1      )    f =( -0.2500000 )
                  (     0         -1          1      )       ( -0.2500000 )
                  (    -1          0          1      )       ( -0.2500000 )

 cart.    s(46) = (  0.0000000  0.0000000 -1.0000000 )    f =( -0.3535534 )
                  (  1.0000000  0.0000000  0.0000000 )       ( -0.3535534 )
                  (  0.0000000  1.0000000  0.0000000 )       ( -0.3535534 )


      isym = 47     inv. 120 deg rotation - cart. axis [1,-1,-1] 

 cryst.   s(47) = (     1         -1          0      )    f =( -0.2500000 )
                  (     1          0          0      )       ( -0.2500000 )
                  (     1          0         -1      )       ( -0.2500000 )

 cart.    s(47) = (  0.0000000  0.0000000  1.0000000 )    f =( -0.3535534 )
                  (  1.0000000  0.0000000  0.0000000 )       ( -0.3535534 )
                  (  0.0000000 -1.0000000  0.0000000 )       ( -0.3535534 )


      isym = 48     inv. 120 deg rotation - cart. axis [-1,-1,1] 

 cryst.   s(48) = (    -1          1          0      )    f =( -0.2500000 )
                  (     0          1         -1      )       ( -0.2500000 )
                  (     0          1          0      )       ( -0.2500000 )

 cart.    s(48) = (  0.0000000  0.0000000  1.0000000 )    f =( -0.3535534 )
                  ( -1.0000000  0.0000000  0.0000000 )       ( -0.3535534 )
                  (  0.0000000  1.0000000  0.0000000 )       ( -0.3535534 )


   Cartesian axes

     site n.     atom                  positions (alat units)
         1        Si     tau(   1) = (   0.0000000   0.0000000   0.0000000  )
         2        Si     tau(   2) = (   0.3535534   0.3535534   0.3535534  )

   Crystallographic axes

     site n.     atom                  positions (cryst. coord.)
         1        Si     tau(   1) = (  0.0000000  0.0000000  0.0000000  )
         2        Si     tau(   2) = (  0.2500000  0.2500000  0.2500000  )

     number of k points=    35
                       cart. coord. in units 2pi/alat
        k(    1) = (   0.0000000   0.0000000   0.0000000), wk =   0.0013717
        k(    2) = (  -0.0785674   0.0785674   0.0785674), wk =   0.0109739
        k(    3) = (  -0.1571348   0.1571348   0.1571348), wk =   0.0109739
        k(    4) = (  -0.2357023   0.2357023   0.2357023), wk =   0.0109739
        k(    5) = (  -0.3142697   0.3142697   0.3142697), wk =   0.0109739
        k(    6) = (   0.0000000   0.0000000   0.1571348), wk =   0.0082305
        k(    7) = (  -0.0785674   0.0785674   0.2357023), wk =   0.0329218
        k(    8) = (  -0.1571348   0.1571348   0.3142697), wk =   0.0329218
        k(    9) = (  -0.2357023   0.2357023   0.3928371), wk =   0.0329218
        k(   10) = (   0.3928371  -0.3928371  -0.2357023), wk =   0.0329218
        k(   11) = (   0.3142697  -0.3142697  -0.1571348), wk =   0.0329218
        k(   12) = (   0.2357023  -0.2357023  -0.0785674), wk =   0.0329218
        k(   13) = (   0.1571348  -0.1571348  -0.0000000), wk =   0.0164609
        k(   14) = (   0.0000000   0.0000000   0.3142697), wk =   0.0082305
        k(   15) = (  -0.0785674   0.0785674   0.3928371), wk =   0.0329218
        k(   16) = (  -0.1571348   0.1571348   0.4714045), wk =   0.0329218
        k(   17) = (   0.4714045  -0.4714045  -0.1571348), wk =   0.0329218
        k(   18) = (   0.3928371  -0.3928371  -0.0785674), wk =   0.0329218
        k(   19) = (   0.3142697  -0.3142697   0.0000000), wk =   0.0164609
        k(   20) = (   0.0000000   0.0000000   0.4714045), wk =   0.0082305
        k(   21) = (  -0.0785674   0.0785674   0.5499719), wk =   0.0329218
        k(   22) = (   0.5499719  -0.5499719  -0.0785674), wk =   0.0329218
        k(   23) = (   0.4714045  -0.4714045  -0.0000000), wk =   0.0164609
        k(   24) = (   0.0000000   0.0000000   0.6285394), wk =   0.0082305
        k(   25) = (   0.6285394  -0.6285394   0.0000000), wk =   0.0164609
        k(   26) = (   0.0000000   0.1571348   0.3142697), wk =   0.0329218
        k(   27) = (  -0.0785674   0.2357023   0.3928371), wk =   0.0658436
        k(   28) = (   0.5499719  -0.3928371  -0.2357023), wk =   0.0658436
        k(   29) = (   0.0000000   0.1571348   0.4714045), wk =   0.0329218
        k(   30) = (   0.6285394  -0.4714045  -0.1571348), wk =   0.0658436
        k(   31) = (   0.5499719  -0.3928371  -0.0785674), wk =   0.0658436
        k(   32) = (   0.4714045  -0.3142697   0.0000000), wk =   0.0329218
        k(   33) = (   0.7071068  -0.5499719  -0.0785674), wk =   0.0329218
        k(   34) = (   0.6285394  -0.4714045  -0.0000000), wk =   0.0329218
        k(   35) = (   0.7071068  -0.3928371  -0.0785674), wk =   0.0329218

                       cryst. coord.
        k(    1) = (   0.0000000   0.0000000   0.0000000), wk =   0.0013717
        k(    2) = (   0.0000000   0.0000000   0.1111111), wk =   0.0109739
        k(    3) = (   0.0000000   0.0000000   0.2222222), wk =   0.0109739
        k(    4) = (   0.0000000   0.0000000   0.3333333), wk =   0.0109739
        k(    5) = (   0.0000000   0.0000000   0.4444444), wk =   0.0109739
        k(    6) = (   0.0000000   0.1111111   0.1111111), wk =   0.0082305
        k(    7) = (   0.0000000   0.1111111   0.2222222), wk =   0.0329218
        k(    8) = (   0.0000000   0.1111111   0.3333333), wk =   0.0329218
        k(    9) = (   0.0000000   0.1111111   0.4444444), wk =   0.0329218
        k(   10) = (   0.0000000   0.1111111  -0.4444444), wk =   0.0329218
        k(   11) = (   0.0000000   0.1111111  -0.3333333), wk =   0.0329218
        k(   12) = (   0.0000000   0.1111111  -0.2222222), wk =   0.0329218
        k(   13) = (   0.0000000   0.1111111  -0.1111111), wk =   0.0164609
        k(   14) = (   0.0000000   0.2222222   0.2222222), wk =   0.0082305
        k(   15) = (   0.0000000   0.2222222   0.3333333), wk =   0.0329218
        k(   16) = (   0.0000000   0.2222222   0.4444444), wk =   0.0329218
        k(   17) = (   0.0000000   0.2222222  -0.4444444), wk =   0.0329218
        k(   18) = (   0.0000000   0.2222222  -0.3333333), wk =   0.0329218
        k(   19) = (   0.0000000   0.2222222  -0.2222222), wk =   0.0164609
        k(   20) = (   0.0000000   0.3333333   0.3333333), wk =   0.0082305
        k(   21) = (   0.0000000   0.3333333   0.4444444), wk =   0.0329218
        k(   22) = (   0.0000000   0.3333333  -0.4444444), wk =   0.0329218
        k(   23) = (   0.0000000   0.3333333  -0.3333333), wk =   0.0164609
        k(   24) = (   0.0000000   0.4444444   0.4444444), wk =   0.0082305
        k(   25) = (   0.0000000   0.4444444  -0.4444444), wk =   0.0164609
        k(   26) = (   0.1111111   0.2222222   0.3333333), wk =   0.0329218
        k(   27) = (   0.1111111   0.2222222   0.4444444), wk =   0.0658436
        k(   28) = (   0.1111111   0.2222222  -0.4444444), wk =   0.0658436
        k(   29) = (   0.1111111   0.3333333   0.4444444), wk =   0.0329218
        k(   30) = (   0.1111111   0.3333333  -0.4444444), wk =   0.0658436
        k(   31) = (   0.1111111   0.3333333  -0.3333333), wk =   0.0658436
        k(   32) = (   0.1111111   0.3333333  -0.2222222), wk =   0.0329218
        k(   33) = (   0.1111111   0.4444444  -0.4444444), wk =   0.0329218
        k(   34) = (   0.1111111   0.4444444  -0.3333333), wk =   0.0329218
        k(   35) = (   0.2222222   0.4444444  -0.3333333), wk =   0.0329218

     Dense  grid:     5985 G-vectors     FFT dimensions: (  32,  32,  32)

     Dynamical RAM for                 wfc:       0.05 MB

     Dynamical RAM for     wfc (w. buffer):       3.25 MB

     Dynamical RAM for           str. fact:       0.09 MB

     Dynamical RAM for           local pot:       0.00 MB

     Dynamical RAM for          nlocal pot:       0.41 MB

     Dynamical RAM for                qrad:       0.88 MB

     Dynamical RAM for          rho,v,vnew:       2.05 MB

     Dynamical RAM for               rhoin:       0.68 MB

     Dynamical RAM for            rho*nmix:       2.92 MB

     Dynamical RAM for           G-vectors:       0.39 MB

     Dynamical RAM for          h,s,v(r/c):       0.00 MB

     Dynamical RAM for          <psi|beta>:       0.00 MB

     Dynamical RAM for                 psi:       0.09 MB

     Dynamical RAM for                hpsi:       0.09 MB

     Dynamical RAM for      wfcinit/wfcrot:       0.18 MB

     Estimated static dynamical RAM per process >       9.44 MB

     Estimated max dynamical RAM per process >      12.55 MB
     Generating pointlists ...
     new r_m :   0.2526 (alat units)  1.8332 (a.u.) for type    1

     Initial potential from superposition of free atoms

     starting charge       7.9989, renormalised to       8.0000
     Starting wfcs are    8 randomized atomic wfcs

     total cpu time spent up to now is        0.4 secs

     Self-consistent Calculation

     iteration #  1     ecut=    30.00 Ry     beta= 0.40
     Davidson diagonalization with overlap

---- Real-time Memory Report at c_bands before calling an iterative solver
            37 MiB given to the printing process from OS
             0 MiB allocation reported by mallinfo(arena+hblkhd)
          1236 MiB available memory on the node where the printing process lives
------------------
     ethr =  1.00E-02,  avg # of iterations =  2.0

     Threshold (ethr) on eigenvalues was too large:
     Diagonalizing with lowered threshold

     Davidson diagonalization with overlap

---- Real-time Memory Report at c_bands before calling an iterative solver
            38 MiB given to the printing process from OS
             0 MiB allocation reported by mallinfo(arena+hblkhd)
          1235 MiB available memory on the node where the printing process lives
------------------
     ethr =  5.94E-04,  avg # of iterations =  2.0

     total cpu time spent up to now is        1.0 secs

     total energy              =     -17.05321765 Ry
     estimated scf accuracy    <       0.05606731 Ry

     total magnetization       =     0.00 Bohr mag/cell
     absolute magnetization    =     0.00 Bohr mag/cell

     iteration #  2     ecut=    30.00 Ry     beta= 0.40
     Davidson diagonalization with overlap

---- Real-time Memory Report at c_bands before calling an iterative solver
            41 MiB given to the printing process from OS
             0 MiB allocation reported by mallinfo(arena+hblkhd)
          1231 MiB available memory on the node where the printing process lives
------------------
     ethr =  7.01E-04,  avg # of iterations =  1.0

     total cpu time spent up to now is        1.3 secs

     total energy              =     -17.04824384 Ry
     estimated scf accuracy    <       0.01703556 Ry

     total magnetization       =     0.00 Bohr mag/cell
     absolute magnetization    =     0.00 Bohr mag/cell

     iteration #  3     ecut=    30.00 Ry     beta= 0.40
     Davidson diagonalization with overlap

---- Real-time Memory Report at c_bands before calling an iterative solver
            42 MiB given to the printing process from OS
             0 MiB allocation reported by mallinfo(arena+hblkhd)
          1231 MiB available memory on the node where the printing process lives
------------------
     ethr =  2.13E-04,  avg # of iterations =  2.0

     total cpu time spent up to now is        1.5 secs

     total energy              =     -17.05014605 Ry
     estimated scf accuracy    <       0.00038765 Ry

     total magnetization       =    -0.00 Bohr mag/cell
     absolute magnetization    =     0.00 Bohr mag/cell

     iteration #  4     ecut=    30.00 Ry     beta= 0.40
     Davidson diagonalization with overlap

---- Real-time Memory Report at c_bands before calling an iterative solver
            42 MiB given to the printing process from OS
             0 MiB allocation reported by mallinfo(arena+hblkhd)
          1230 MiB available memory on the node where the printing process lives
------------------
     ethr =  4.85E-06,  avg # of iterations =  3.1

     total cpu time spent up to now is        1.9 secs

     total energy              =     -17.05017023 Ry
     estimated scf accuracy    <       0.00048718 Ry

     total magnetization       =    -0.00 Bohr mag/cell
     absolute magnetization    =     0.00 Bohr mag/cell

     iteration #  5     ecut=    30.00 Ry     beta= 0.40
     Davidson diagonalization with overlap

---- Real-time Memory Report at c_bands before calling an iterative solver
            43 MiB given to the printing process from OS
             0 MiB allocation reported by mallinfo(arena+hblkhd)
          1230 MiB available memory on the node where the printing process lives
------------------
     ethr =  4.85E-06,  avg # of iterations =  2.0

     total cpu time spent up to now is        2.1 secs

     total energy              =     -17.05022692 Ry
     estimated scf accuracy    <       0.00000066 Ry

     total magnetization       =    -0.00 Bohr mag/cell
     absolute magnetization    =     0.00 Bohr mag/cell

     iteration #  6     ecut=    30.00 Ry     beta= 0.40
     Davidson diagonalization with overlap

---- Real-time Memory Report at c_bands before calling an iterative solver
            43 MiB given to the printing process from OS
             0 MiB allocation reported by mallinfo(arena+hblkhd)
          1230 MiB available memory on the node where the printing process lives
------------------
     ethr =  8.21E-09,  avg # of iterations =  7.9

     total cpu time spent up to now is        2.7 secs

     total energy              =     -17.05023475 Ry
     estimated scf accuracy    <       0.00000376 Ry

     total magnetization       =    -0.00 Bohr mag/cell
     absolute magnetization    =     0.00 Bohr mag/cell

     iteration #  7     ecut=    30.00 Ry     beta= 0.40
     Davidson diagonalization with overlap

---- Real-time Memory Report at c_bands before calling an iterative solver
            43 MiB given to the printing process from OS
             0 MiB allocation reported by mallinfo(arena+hblkhd)
          1230 MiB available memory on the node where the printing process lives
------------------
     ethr =  8.21E-09,  avg # of iterations =  1.9

     total cpu time spent up to now is        3.0 secs

     total energy              =     -17.05025213 Ry
     estimated scf accuracy    <       0.00000136 Ry

     total magnetization       =    -0.00 Bohr mag/cell
     absolute magnetization    =     0.00 Bohr mag/cell

     iteration #  8     ecut=    30.00 Ry     beta= 0.40
     Davidson diagonalization with overlap

---- Real-time Memory Report at c_bands before calling an iterative solver
            44 MiB given to the printing process from OS
             0 MiB allocation reported by mallinfo(arena+hblkhd)
          1230 MiB available memory on the node where the printing process lives
------------------
     ethr =  8.21E-09,  avg # of iterations =  4.6

     total cpu time spent up to now is        3.5 secs

     total energy              =     -17.05024079 Ry
     estimated scf accuracy    <       0.00005782 Ry

     total magnetization       =    -0.00 Bohr mag/cell
     absolute magnetization    =     0.00 Bohr mag/cell

     iteration #  9     ecut=    30.00 Ry     beta= 0.40
     Davidson diagonalization with overlap

---- Real-time Memory Report at c_bands before calling an iterative solver
            44 MiB given to the printing process from OS
             0 MiB allocation reported by mallinfo(arena+hblkhd)
          1230 MiB available memory on the node where the printing process lives
------------------
     ethr =  8.21E-09,  avg # of iterations =  6.8

     total cpu time spent up to now is        4.1 secs

     total energy              =     -17.05022545 Ry
     estimated scf accuracy    <       0.00010340 Ry

     total magnetization       =     0.00 Bohr mag/cell
     absolute magnetization    =     0.00 Bohr mag/cell

     iteration # 10     ecut=    30.00 Ry     beta= 0.40
     Davidson diagonalization with overlap

---- Real-time Memory Report at c_bands before calling an iterative solver
            44 MiB given to the printing process from OS
             0 MiB allocation reported by mallinfo(arena+hblkhd)
          1229 MiB available memory on the node where the printing process lives
------------------
     ethr =  8.21E-09,  avg # of iterations =  5.5

     total cpu time spent up to now is        4.6 secs

     total energy              =     -17.05023579 Ry
     estimated scf accuracy    <       0.00000088 Ry

     total magnetization       =     0.00 Bohr mag/cell
     absolute magnetization    =     0.00 Bohr mag/cell

     iteration # 11     ecut=    30.00 Ry     beta= 0.40
     Davidson diagonalization with overlap

---- Real-time Memory Report at c_bands before calling an iterative solver
            44 MiB given to the printing process from OS
             0 MiB allocation reported by mallinfo(arena+hblkhd)
          1228 MiB available memory on the node where the printing process lives
------------------
     ethr =  8.21E-09,  avg # of iterations =  2.0

     total cpu time spent up to now is        4.9 secs

     total energy              =     -17.05023533 Ry
     estimated scf accuracy    <       0.00000376 Ry

     total magnetization       =    -0.00 Bohr mag/cell
     absolute magnetization    =     0.00 Bohr mag/cell

     iteration # 12     ecut=    30.00 Ry     beta= 0.40
     Davidson diagonalization with overlap

---- Real-time Memory Report at c_bands before calling an iterative solver
            44 MiB given to the printing process from OS
             0 MiB allocation reported by mallinfo(arena+hblkhd)
          1229 MiB available memory on the node where the printing process lives
------------------
     ethr =  8.21E-09,  avg # of iterations =  1.0

     total cpu time spent up to now is        5.1 secs

     total energy              =     -17.05023603 Ry
     estimated scf accuracy    <       0.00000248 Ry

     total magnetization       =    -0.00 Bohr mag/cell
     absolute magnetization    =     0.00 Bohr mag/cell

     iteration # 13     ecut=    30.00 Ry     beta= 0.40
     Davidson diagonalization with overlap

---- Real-time Memory Report at c_bands before calling an iterative solver
            44 MiB given to the printing process from OS
             0 MiB allocation reported by mallinfo(arena+hblkhd)
          1229 MiB available memory on the node where the printing process lives
------------------
     ethr =  8.21E-09,  avg # of iterations =  1.0

     total cpu time spent up to now is        5.4 secs

     total energy              =     -17.05023537 Ry
     estimated scf accuracy    <       0.00000417 Ry

     total magnetization       =     0.00 Bohr mag/cell
     absolute magnetization    =     0.00 Bohr mag/cell

     iteration # 14     ecut=    30.00 Ry     beta= 0.40
     Davidson diagonalization with overlap

---- Real-time Memory Report at c_bands before calling an iterative solver
            44 MiB given to the printing process from OS
             0 MiB allocation reported by mallinfo(arena+hblkhd)
          1229 MiB available memory on the node where the printing process lives
------------------
     ethr =  8.21E-09,  avg # of iterations =  1.0

     total cpu time spent up to now is        5.6 secs

     total energy              =     -17.05023407 Ry
     estimated scf accuracy    <       0.00000263 Ry

     total magnetization       =    -0.00 Bohr mag/cell
     absolute magnetization    =     0.00 Bohr mag/cell

     iteration # 15     ecut=    30.00 Ry     beta= 0.40
     Davidson diagonalization with overlap

---- Real-time Memory Report at c_bands before calling an iterative solver
            44 MiB given to the printing process from OS
             0 MiB allocation reported by mallinfo(arena+hblkhd)
          1230 MiB available memory on the node where the printing process lives
------------------
     ethr =  8.21E-09,  avg # of iterations =  2.0

     total cpu time spent up to now is        5.9 secs

     total energy              =     -17.05023438 Ry
     estimated scf accuracy    <          5.5E-10 Ry

     total magnetization       =    -0.00 Bohr mag/cell
     absolute magnetization    =     0.00 Bohr mag/cell

     iteration # 16     ecut=    30.00 Ry     beta= 0.40
     Davidson diagonalization with overlap

---- Real-time Memory Report at c_bands before calling an iterative solver
            44 MiB given to the printing process from OS
             0 MiB allocation reported by mallinfo(arena+hblkhd)
          1229 MiB available memory on the node where the printing process lives
------------------
     ethr =  6.89E-12,  avg # of iterations =  8.3

     total cpu time spent up to now is        6.5 secs

     total energy              =     -17.05023439 Ry
     estimated scf accuracy    <          6.4E-10 Ry

     total magnetization       =    -0.00 Bohr mag/cell
     absolute magnetization    =     0.00 Bohr mag/cell

     iteration # 17     ecut=    30.00 Ry     beta= 0.40
     Davidson diagonalization with overlap

---- Real-time Memory Report at c_bands before calling an iterative solver
            44 MiB given to the printing process from OS
             0 MiB allocation reported by mallinfo(arena+hblkhd)
          1229 MiB available memory on the node where the printing process lives
------------------
     ethr =  6.89E-12,  avg # of iterations =  2.0

     Magnetic moment per site  (integrated on atomic sphere of radius R)
     atom   1 (R=0.253)  charge=  1.8397  magn= -0.0000
     atom   2 (R=0.253)  charge=  1.8397  magn= -0.0000

     total cpu time spent up to now is        6.9 secs

     End of self-consistent calculation

 ------ SPIN UP ------------


          k = 0.0000 0.0000 0.0000 (   749 PWs)   bands (ev):

    -5.9256   6.0347   6.0347   6.0347

     occupation numbers 
     1.0000   1.0000   1.0000   1.0000

          k =-0.0786 0.0786 0.0786 (   743 PWs)   bands (ev):

    -5.7643   4.6748   5.7970   5.7970

     occupation numbers 
     1.0000   1.0000   1.0000   1.0000

          k =-0.1571 0.1571 0.1571 (   760 PWs)   bands (ev):

    -5.2900   2.5942   5.3733   5.3733

     occupation numbers 
     1.0000   1.0000   1.0000   1.0000

          k =-0.2357 0.2357 0.2357 (   757 PWs)   bands (ev):

    -4.5492   0.6817   5.0364   5.0364

     occupation numbers 
     1.0000   1.0000   1.0000   1.0000

          k =-0.3143 0.3143 0.3143 (   766 PWs)   bands (ev):

    -3.7557  -0.7157   4.8613   4.8613

     occupation numbers 
     1.0000   1.0000   1.0000   1.0000

          k = 0.0000 0.0000 0.1571 (   745 PWs)   bands (ev):

    -5.7100   4.9033   5.3558   5.3558

     occupation numbers 
     1.0000   1.0000   1.0000   1.0000

          k =-0.0786 0.0786 0.2357 (   749 PWs)   bands (ev):

    -5.3381   3.2181   4.8825   5.0124

     occupation numbers 
     1.0000   1.0000   1.0000   1.0000

          k =-0.1571 0.1571 0.3143 (   757 PWs)   bands (ev):

    -4.6774   1.3105   4.5029   4.5785

     occupation numbers 
     1.0000   1.0000   1.0000   1.0000

          k =-0.2357 0.2357 0.3928 (   754 PWs)   bands (ev):

    -3.8497  -0.2809   4.0663   4.4974

     occupation numbers 
     1.0000   1.0000   1.0000   1.0000

          k = 0.3928-0.3928-0.2357 (   754 PWs)   bands (ev):

    -3.4689  -0.8551   3.8071   4.6383

     occupation numbers 
     1.0000   1.0000   1.0000   1.0000

          k = 0.3143-0.3143-0.1571 (   751 PWs)   bands (ev):

    -4.1289   0.1961   3.7728   4.9692

     occupation numbers 
     1.0000   1.0000   1.0000   1.0000

          k = 0.2357-0.2357-0.0786 (   752 PWs)   bands (ev):

    -4.9284   1.9265   4.0054   5.4189

     occupation numbers 
     1.0000   1.0000   1.0000   1.0000

          k = 0.1571-0.1571-0.0000 (   759 PWs)   bands (ev):

    -5.4978   3.6931   4.6598   5.8122

     occupation numbers 
     1.0000   1.0000   1.0000   1.0000

          k = 0.0000 0.0000 0.3143 (   745 PWs)   bands (ev):

    -5.0693   2.9943   4.3609   4.3609

     occupation numbers 
     1.0000   1.0000   1.0000   1.0000

          k =-0.0786 0.0786 0.3928 (   749 PWs)   bands (ev):

    -4.5003   1.6649   3.7252   4.0192

     occupation numbers 
     1.0000   1.0000   1.0000   1.0000

          k =-0.1571 0.1571 0.4714 (   751 PWs)   bands (ev):

    -3.7007   0.1939   2.9766   3.9219

     occupation numbers 
     1.0000   1.0000   1.0000   1.0000

          k = 0.4714-0.4714-0.1571 (   751 PWs)   bands (ev):

    -3.0430  -0.7507   2.4538   4.0778

     occupation numbers 
     1.0000   1.0000   1.0000   1.0000

          k = 0.3928-0.3928-0.0786 (   755 PWs)   bands (ev):

    -3.4569  -0.1706   2.2709   4.4597

     occupation numbers 
     1.0000   1.0000   1.0000   1.0000

          k = 0.3143-0.3143 0.0000 (   754 PWs)   bands (ev):

    -4.2807   1.0779   2.6567   4.9827

     occupation numbers 
     1.0000   1.0000   1.0000   1.0000

          k = 0.0000 0.0000 0.4714 (   749 PWs)   bands (ev):

    -4.0234   1.0103   3.6180   3.6180

     occupation numbers 
     1.0000   1.0000   1.0000   1.0000

          k =-0.0786 0.0786 0.5500 (   755 PWs)   bands (ev):

    -3.2849  -0.0368   2.8798   3.4611

     occupation numbers 
     1.0000   1.0000   1.0000   1.0000

          k = 0.5500-0.5500-0.0786 (   746 PWs)   bands (ev):

    -2.4892  -0.9333   1.9639   3.5688

     occupation numbers 
     1.0000   1.0000   1.0000   1.0000

          k = 0.4714-0.4714-0.0000 (   740 PWs)   bands (ev):

    -2.6618  -0.7443   1.5971   3.9247

     occupation numbers 
     1.0000   1.0000   1.0000   1.0000

          k = 0.0000 0.0000 0.6285 (   745 PWs)   bands (ev):

    -2.6110  -0.8992   3.2327   3.2327

     occupation numbers 
     1.0000   1.0000   1.0000   1.0000

          k = 0.6285-0.6285 0.0000 (   746 PWs)   bands (ev):

    -1.8383  -1.6706   2.6035   3.2704

     occupation numbers 
     1.0000   1.0000   1.0000   1.0000

          k = 0.0000 0.1571 0.3143 (   749 PWs)   bands (ev):

    -4.8687   2.2280   3.6527   4.8667

     occupation numbers 
     1.0000   1.0000   1.0000   1.0000

          k =-0.0786 0.2357 0.3928 (   752 PWs)   bands (ev):

    -4.1332   0.7391   3.0415   4.4279

     occupation numbers 
     1.0000   1.0000   1.0000   1.0000

          k = 0.5500-0.3928-0.2357 (   742 PWs)   bands (ev):

    -3.3347  -0.5517   2.8479   4.1040

     occupation numbers 
     1.0000   1.0000   1.0000   1.0000

          k = 0.0000 0.1571 0.4714 (   753 PWs)   bands (ev):

    -3.8488   0.7081   2.9400   3.6388

     occupation numbers 
     1.0000   1.0000   1.0000   1.0000

          k = 0.6285-0.4714-0.1571 (   751 PWs)   bands (ev):

    -3.0213  -0.3740   2.2686   3.3298

     occupation numbers 
     1.0000   1.0000   1.0000   1.0000

          k = 0.5500-0.3928-0.0786 (   745 PWs)   bands (ev):

    -2.6542  -0.8008   1.8787   3.4426

     occupation numbers 
     1.0000   1.0000   1.0000   1.0000

          k = 0.4714-0.3143 0.0000 (   749 PWs)   bands (ev):

    -3.3566   0.0010   2.0264   3.8818

     occupation numbers 
     1.0000   1.0000   1.0000   1.0000

          k = 0.7071-0.5500-0.0786 (   749 PWs)   bands (ev):

    -2.4939  -0.9141   2.6532   2.8656

     occupation numbers 
     1.0000   1.0000   1.0000   1.0000

          k = 0.6285-0.4714-0.0000 (   743 PWs)   bands (ev):

    -1.9693  -1.3748   1.9193   2.9533

     occupation numbers 
     1.0000   1.0000   1.0000   1.0000

          k = 0.7071-0.3928-0.0786 (   745 PWs)   bands (ev):

    -2.2155  -1.0591   1.9580   2.6059

     occupation numbers 
     1.0000   1.0000   1.0000   1.0000

 ------ SPIN DOWN ----------


          k = 0.0000 0.0000 0.0000 (   749 PWs)   bands (ev):

    -5.9256   6.0347   6.0347   6.0347

     occupation numbers 
     1.0000   1.0000   1.0000   1.0000

          k =-0.0786 0.0786 0.0786 (   743 PWs)   bands (ev):

    -5.7643   4.6748   5.7970   5.7970

     occupation numbers 
     1.0000   1.0000   1.0000   1.0000

          k =-0.1571 0.1571 0.1571 (   760 PWs)   bands (ev):

    -5.2900   2.5942   5.3733   5.3733

     occupation numbers 
     1.0000   1.0000   1.0000   1.0000

          k =-0.2357 0.2357 0.2357 (   757 PWs)   bands (ev):

    -4.5492   0.6817   5.0364   5.0364

     occupation numbers 
     1.0000   1.0000   1.0000   1.0000

          k =-0.3143 0.3143 0.3143 (   766 PWs)   bands (ev):

    -3.7557  -0.7157   4.8613   4.8613

     occupation numbers 
     1.0000   1.0000   1.0000   1.0000

          k = 0.0000 0.0000 0.1571 (   745 PWs)   bands (ev):

    -5.7100   4.9033   5.3558   5.3558

     occupation numbers 
     1.0000   1.0000   1.0000   1.0000

          k =-0.0786 0.0786 0.2357 (   749 PWs)   bands (ev):

    -5.3381   3.2181   4.8825   5.0124

     occupation numbers 
     1.0000   1.0000   1.0000   1.0000

          k =-0.1571 0.1571 0.3143 (   757 PWs)   bands (ev):

    -4.6774   1.3105   4.5029   4.5785

     occupation numbers 
     1.0000   1.0000   1.0000   1.0000

          k =-0.2357 0.2357 0.3928 (   754 PWs)   bands (ev):

    -3.8497  -0.2809   4.0663   4.4974

     occupation numbers 
     1.0000   1.0000   1.0000   1.0000

          k = 0.3928-0.3928-0.2357 (   754 PWs)   bands (ev):

    -3.4689  -0.8551   3.8071   4.6383

     occupation numbers 
     1.0000   1.0000   1.0000   1.0000

          k = 0.3143-0.3143-0.1571 (   751 PWs)   bands (ev):

    -4.1289   0.1961   3.7728   4.9692

     occupation numbers 
     1.0000   1.0000   1.0000   1.0000

          k = 0.2357-0.2357-0.0786 (   752 PWs)   bands (ev):

    -4.9284   1.9265   4.0054   5.4189

     occupation numbers 
     1.0000   1.0000   1.0000   1.0000

          k = 0.1571-0.1571-0.0000 (   759 PWs)   bands (ev):

    -5.4978   3.6931   4.6598   5.8122

     occupation numbers 
     1.0000   1.0000   1.0000   1.0000

          k = 0.0000 0.0000 0.3143 (   745 PWs)   bands (ev):

    -5.0693   2.9943   4.3609   4.3609

     occupation numbers 
     1.0000   1.0000   1.0000   1.0000

          k =-0.0786 0.0786 0.3928 (   749 PWs)   bands (ev):

    -4.5003   1.6649   3.7252   4.0192

     occupation numbers 
     1.0000   1.0000   1.0000   1.0000

          k =-0.1571 0.1571 0.4714 (   751 PWs)   bands (ev):

    -3.7007   0.1939   2.9766   3.9219

     occupation numbers 
     1.0000   1.0000   1.0000   1.0000

          k = 0.4714-0.4714-0.1571 (   751 PWs)   bands (ev):

    -3.0430  -0.7507   2.4538   4.0778

     occupation numbers 
     1.0000   1.0000   1.0000   1.0000

          k = 0.3928-0.3928-0.0786 (   755 PWs)   bands (ev):

    -3.4569  -0.1706   2.2709   4.4597

     occupation numbers 
     1.0000   1.0000   1.0000   1.0000

          k = 0.3143-0.3143 0.0000 (   754 PWs)   bands (ev):

    -4.2807   1.0779   2.6567   4.9827

     occupation numbers 
     1.0000   1.0000   1.0000   1.0000

          k = 0.0000 0.0000 0.4714 (   749 PWs)   bands (ev):

    -4.0234   1.0103   3.6180   3.6180

     occupation numbers 
     1.0000   1.0000   1.0000   1.0000

          k =-0.0786 0.0786 0.5500 (   755 PWs)   bands (ev):

    -3.2849  -0.0368   2.8798   3.4611

     occupation numbers 
     1.0000   1.0000   1.0000   1.0000

          k = 0.5500-0.5500-0.0786 (   746 PWs)   bands (ev):

    -2.4892  -0.9333   1.9639   3.5688

     occupation numbers 
     1.0000   1.0000   1.0000   1.0000

          k = 0.4714-0.4714-0.0000 (   740 PWs)   bands (ev):

    -2.6618  -0.7443   1.5971   3.9247

     occupation numbers 
     1.0000   1.0000   1.0000   1.0000

          k = 0.0000 0.0000 0.6285 (   745 PWs)   bands (ev):

    -2.6110  -0.8992   3.2327   3.2327

     occupation numbers 
     1.0000   1.0000   1.0000   1.0000

          k = 0.6285-0.6285 0.0000 (   746 PWs)   bands (ev):

    -1.8383  -1.6706   2.6035   3.2704

     occupation numbers 
     1.0000   1.0000   1.0000   1.0000

          k = 0.0000 0.1571 0.3143 (   749 PWs)   bands (ev):

    -4.8687   2.2280   3.6527   4.8667

     occupation numbers 
     1.0000   1.0000   1.0000   1.0000

          k =-0.0786 0.2357 0.3928 (   752 PWs)   bands (ev):

    -4.1332   0.7391   3.0415   4.4279

     occupation numbers 
     1.0000   1.0000   1.0000   1.0000

          k = 0.5500-0.3928-0.2357 (   742 PWs)   bands (ev):

    -3.3347  -0.5517   2.8479   4.1040

     occupation numbers 
     1.0000   1.0000   1.0000   1.0000

          k = 0.0000 0.1571 0.4714 (   753 PWs)   bands (ev):

    -3.8488   0.7081   2.9400   3.6388

     occupation numbers 
     1.0000   1.0000   1.0000   1.0000

          k = 0.6285-0.4714-0.1571 (   751 PWs)   bands (ev):

    -3.0213  -0.3740   2.2686   3.3298

     occupation numbers 
     1.0000   1.0000   1.0000   1.0000

          k = 0.5500-0.3928-0.0786 (   745 PWs)   bands (ev):

    -2.6542  -0.8008   1.8787   3.4426

     occupation numbers 
     1.0000   1.0000   1.0000   1.0000

          k = 0.4714-0.3143 0.0000 (   749 PWs)   bands (ev):

    -3.3566   0.0010   2.0264   3.8818

     occupation numbers 
     1.0000   1.0000   1.0000   1.0000

          k = 0.7071-0.5500-0.0786 (   749 PWs)   bands (ev):

    -2.4939  -0.9141   2.6532   2.8656

     occupation numbers 
     1.0000   1.0000   1.0000   1.0000

          k = 0.6285-0.4714-0.0000 (   743 PWs)   bands (ev):

    -1.9693  -1.3748   1.9193   2.9533

     occupation numbers 
     1.0000   1.0000   1.0000   1.0000

          k = 0.7071-0.3928-0.0786 (   745 PWs)   bands (ev):

    -2.2155  -1.0591   1.9580   2.6059

     occupation numbers 
     1.0000   1.0000   1.0000   1.0000

     highest occupied level (ev):     6.0347

!    total energy              =     -17.05023439 Ry
     estimated scf accuracy    <          2.6E-10 Ry

     The total energy is the sum of the following terms:
     one-electron contribution =       4.84773829 Ry
     hartree contribution      =       1.09562072 Ry
     xc contribution           =      -6.19761909 Ry
     ewald contribution        =     -16.79597432 Ry

     total magnetization       =    -0.00 Bohr mag/cell
     absolute magnetization    =     0.00 Bohr mag/cell

     convergence has been achieved in  17 iterations

     Forces acting on atoms (cartesian axes, Ry/au):

     atom    1 type  1   force =     0.00000000    0.00000000    0.00000000
     atom    2 type  1   force =     0.00000000    0.00000000   -0.00000000
     The non-local contrib.  to forces
     atom    1 type  1   force =    -0.00000000    0.00000000   -0.00000000
     atom    2 type  1   force =     0.00000000    0.00000000    0.00000000
     The ionic contribution  to forces
     atom    1 type  1   force =     0.00000000    0.00000000    0.00000000
     atom    2 type  1   force =    -0.00000000   -0.00000000   -0.00000000
     The local contribution  to forces
     atom    1 type  1   force =     0.00000000    0.00000000    0.00000000
     atom    2 type  1   force =    -0.00000000   -0.00000000   -0.00000000
     The core correction contribution to forces
     atom    1 type  1   force =     0.00000000    0.00000000    0.00000000
     atom    2 type  1   force =     0.00000000    0.00000000    0.00000000
     The Hubbard contrib.    to forces
     atom    1 type  1   force =     0.00000000    0.00000000    0.00000000
     atom    2 type  1   force =     0.00000000    0.00000000    0.00000000
     The SCF correction term to forces
     atom    1 type  1   force =    -0.00000000   -0.00000000   -0.00000000
     atom    2 type  1   force =    -0.00000000   -0.00000000   -0.00000000

     Total force =     0.000000     Total SCF correction =     0.000000


     Computing stress (Cartesian axis) and pressure

          total   stress  (Ry/bohr**3)                   (kbar)     P=      -19.09
  -0.00012978   0.00000000   0.00000000          -19.09        0.00        0.00
   0.00000000  -0.00012978   0.00000000            0.00      -19.09        0.00
   0.00000000   0.00000000  -0.00012978            0.00        0.00      -19.09

     kinetic stress (kbar)   2234.28      0.00     -0.00
                                0.00   2234.28      0.00
                               -0.00      0.00   2234.28

     local   stress (kbar)   -419.28      0.00      0.00
                                0.00   -419.28      0.00
                                0.00      0.00   -419.28

     nonloc. stress (kbar)   1971.40      0.00     -0.00
                                0.00   1971.40      0.00
                               -0.00      0.00   1971.40

     hartree stress (kbar)    198.79     -0.00      0.00
                               -0.00    198.79      0.00
                                0.00      0.00    198.79

     exc-cor stress (kbar)   -149.75      0.00      0.00
                                0.00   -149.75      0.00
                                0.00      0.00   -149.75

     corecor stress (kbar)   -807.02      0.00      0.00
                                0.00   -807.02      0.00
                                0.00      0.00   -807.02

     ewald   stress (kbar)  -3047.51     -0.00      0.00
                               -0.00  -3047.51     -0.00
                                0.00     -0.00  -3047.51

     hubbard stress (kbar)      0.00      0.00      0.00
                                0.00      0.00      0.00
                                0.00      0.00      0.00

     DFT-D   stress (kbar)      0.00      0.00      0.00
                                0.00      0.00      0.00
                                0.00      0.00      0.00

     XDM     stress (kbar)      0.00      0.00      0.00
                                0.00      0.00      0.00
                                0.00      0.00      0.00

     dft-nl  stress (kbar)      0.00      0.00      0.00
                                0.00      0.00      0.00
                                0.00      0.00      0.00

     TS-vdW  stress (kbar)      0.00      0.00      0.00
                                0.00      0.00      0.00
                                0.00      0.00      0.00

     MDB     stress (kbar)      0.00      0.00      0.00
                                0.00      0.00      0.00
                                0.00      0.00      0.00

     3D-RISM stress (kbar)      0.00      0.00      0.00
                                0.00      0.00      0.00
                                0.00      0.00      0.00


     Writing all to output data dir ./out/si_lda.save/ :
     XML data file, charge density, pseudopotentials, collected wavefunctions

     init_run     :      0.41s CPU      0.42s WALL (       1 calls)
     electrons    :      6.38s CPU      6.42s WALL (       1 calls)
     forces       :      0.04s CPU      0.04s WALL (       1 calls)
     stress       :      0.22s CPU      0.22s WALL (       1 calls)

     Called by init_run:
     wfcinit      :      0.25s CPU      0.25s WALL (       1 calls)
     wfcinit:atom :      0.00s CPU      0.00s WALL (      70 calls)
     wfcinit:wfcr :      0.23s CPU      0.23s WALL (      70 calls)
     potinit      :      0.02s CPU      0.02s WALL (       1 calls)
     hinit0       :      0.14s CPU      0.14s WALL (       1 calls)

     Called by electrons:
     c_bands      :      5.60s CPU      5.64s WALL (      18 calls)
     sum_band     :      0.69s CPU      0.69s WALL (      18 calls)
     v_of_rho     :      0.07s CPU      0.07s WALL (      18 calls)
     v_h          :      0.00s CPU      0.00s WALL (      18 calls)
     v_xc         :      0.08s CPU      0.08s WALL (      20 calls)
     mix_rho      :      0.02s CPU      0.02s WALL (      18 calls)

     Called by c_bands:
     init_us_2    :      0.31s CPU      0.31s WALL (    2730 calls)
     cegterg      :      4.88s CPU      4.91s WALL (    1260 calls)

     Called by sum_band:
     sum_band:wei :      0.00s CPU      0.00s WALL (      18 calls)
     sum_band:loo :      0.67s CPU      0.67s WALL (      18 calls)
     sum_band:buf :      0.00s CPU      0.00s WALL (    1260 calls)
     sum_band:ini :      0.14s CPU      0.14s WALL (    1260 calls)

     Called by *egterg:
     cdiaghg      :      0.06s CPU      0.07s WALL (    5115 calls)
     cegterg:over :      0.12s CPU      0.12s WALL (    3925 calls)
     cegterg:upda :      0.07s CPU      0.07s WALL (    3925 calls)
     cegterg:last :      0.10s CPU      0.10s WALL (    3605 calls)
     h_psi        :      4.66s CPU      4.68s WALL (    5255 calls)
     g_psi        :      0.03s CPU      0.03s WALL (    3925 calls)

     Called by h_psi:
     h_psi:calbec :      0.37s CPU      0.38s WALL (    5255 calls)
     vloc_psi     :      3.93s CPU      3.96s WALL (    5255 calls)
     add_vuspsi   :      0.33s CPU      0.33s WALL (    5255 calls)

     General routines
     calbec       :      0.40s CPU      0.40s WALL (    5605 calls)
     fft          :      0.11s CPU      0.11s WALL (      98 calls)
     ffts         :      0.00s CPU      0.00s WALL (      36 calls)
     fftw         :      3.86s CPU      3.88s WALL (   41870 calls)

     Parallel routines

     PWSCF        :      7.09s CPU      7.13s WALL


   This run was terminated on:  10:19:50  10Sep2024            

=------------------------------------------------------------------------------=
   JOB DONE.
=------------------------------------------------------------------------------=
