
     Program PWSCF v.7.3.1 starts on  3Sep2024 at 15:33:11 

     This program is part of the open-source Quantum ESPRESSO suite
     for quantum simulation of materials; please cite
         "P. Giannozzi et al., J. Phys.:Condens. Matter 21 395502 (2009);
         "P. Giannozzi et al., J. Phys.:Condens. Matter 29 465901 (2017);
         "P. Giannozzi et al., J. Chem. Phys. 152 154105 (2020);
          URL http://www.quantum-espresso.org", 
     in publications or presentations arising from this work. More details at
     http://www.quantum-espresso.org/quote

     Parallel version (MPI), running on     1 processors

     MPI processes distributed on     1 nodes
     2628 MiB available memory on the printing compute node when the environment starts

     Waiting for input...
     Reading input from standard input

     Current dimensions of program PWSCF are:
     Max number of different atomic species (ntypx) = 10
     Max number of k-points (npk) =  40000
     Max angular momentum in pseudopotentials (lmaxx) =  4
     Message from routine volume:
     axis vectors are left-handed

     Subspace diagonalization in iterative solution of the eigenvalue problem:
     a serial algorithm will be used


     G-vector sticks info
     --------------------
     sticks:   dense  smooth     PW     G-vecs:    dense   smooth      PW
     Sum        1735     859    265                47855    16889    2891

     Using Slab Decomposition



     bravais-lattice index     =            0
     lattice parameter (alat)  =       7.2571  a.u.
     unit-cell volume          =     270.2504 (a.u.)^3
     number of atoms/cell      =            2
     number of atomic types    =            1
     number of electrons       =         8.00 (up:   4.00, down:   4.00)
     number of Kohn-Sham states=            4
     kinetic-energy cutoff     =      60.0000  Ry
     charge density cutoff     =     480.0000  Ry
     scf convergence threshold =      4.0E-10
     mixing beta               =       0.4000
     number of iterations used =            8  plain     mixing
     Exchange-correlation= SLA  PW   NOGX NOGC
                           (   1   4   0   0   0   0   0)

     celldm(1)=   7.257056  celldm(2)=   0.000000  celldm(3)=   0.000000
     celldm(4)=   0.000000  celldm(5)=   0.000000  celldm(6)=   0.000000

     crystal axes: (cart. coord. in units of alat)
               a(1) = (   0.707107   0.707107   0.000000 )  
               a(2) = (   0.707107   0.000000   0.707107 )  
               a(3) = (   0.000000   0.707107   0.707107 )  

     reciprocal axes: (cart. coord. in units 2 pi/alat)
               b(1) = (  0.707107  0.707107 -0.707107 )  
               b(2) = (  0.707107 -0.707107  0.707107 )  
               b(3) = ( -0.707107  0.707107  0.707107 )  


     PseudoPot. # 1 for Si read from file:
     ./pseudo/Si_lda.upf
     MD5 check sum: 9e2d726316af3d4752eea8ab0afbb951
     Pseudo is Norm-conserving + core correction, Zval =  4.0
     Generated using ONCVPSP code by D. R. Hamann
     Using radial grid of 1510 points,  6 beta functions with: 
                l(1) =   0
                l(2) =   0
                l(3) =   1
                l(4) =   1
                l(5) =   2
                l(6) =   2

     atomic species   valence    mass     pseudopotential
     Si                4.00    28.08550     Si( 1.00)

     Starting magnetic structure 
     atomic species   magnetization
     Si              0.000

     No symmetry found


                                    s                        frac. trans.

      isym =  1     identity                                     

 cryst.   s( 1) = (     1          0          0      )
                  (     0          1          0      )
                  (     0          0          1      )

 cart.    s( 1) = (  1.0000000  0.0000000  0.0000000 )
                  (  0.0000000  1.0000000  0.0000000 )
                  (  0.0000000  0.0000000  1.0000000 )


   Cartesian axes

     site n.     atom                  positions (alat units)
         1        Si     tau(   1) = (   0.0000000   0.0000000   0.0000000  )
         2        Si     tau(   2) = (   0.3535534   0.3535534   0.3535534  )

   Crystallographic axes

     site n.     atom                  positions (cryst. coord.)
         1        Si     tau(   1) = (  0.0000000  0.0000000  0.0000000  )
         2        Si     tau(   2) = (  0.2500000  0.2500000  0.2500000  )

     number of k points=   216
                       cart. coord. in units 2pi/alat
        k(    1) = (   0.0000000   0.0000000   0.0000000), wk =   0.0046296
        k(    2) = (  -0.1178511   0.1178511   0.1178511), wk =   0.0046296
        k(    3) = (  -0.2357023   0.2357023   0.2357023), wk =   0.0046296
        k(    4) = (   0.3535534  -0.3535534  -0.3535534), wk =   0.0046296
        k(    5) = (   0.2357023  -0.2357023  -0.2357023), wk =   0.0046296
        k(    6) = (   0.1178511  -0.1178511  -0.1178511), wk =   0.0046296
        k(    7) = (   0.1178511  -0.1178511   0.1178511), wk =   0.0046296
        k(    8) = (   0.0000000   0.0000000   0.2357023), wk =   0.0046296
        k(    9) = (  -0.1178511   0.1178511   0.3535534), wk =   0.0046296
        k(   10) = (   0.4714045  -0.4714045  -0.2357023), wk =   0.0046296
        k(   11) = (   0.3535534  -0.3535534  -0.1178511), wk =   0.0046296
        k(   12) = (   0.2357023  -0.2357023   0.0000000), wk =   0.0046296
        k(   13) = (   0.2357023  -0.2357023   0.2357023), wk =   0.0046296
        k(   14) = (   0.1178511  -0.1178511   0.3535534), wk =   0.0046296
        k(   15) = (   0.0000000   0.0000000   0.4714045), wk =   0.0046296
        k(   16) = (   0.5892557  -0.5892557  -0.1178511), wk =   0.0046296
        k(   17) = (   0.4714045  -0.4714045  -0.0000000), wk =   0.0046296
        k(   18) = (   0.3535534  -0.3535534   0.1178511), wk =   0.0046296
        k(   19) = (  -0.3535534   0.3535534  -0.3535534), wk =   0.0046296
        k(   20) = (  -0.4714045   0.4714045  -0.2357023), wk =   0.0046296
        k(   21) = (  -0.5892557   0.5892557  -0.1178511), wk =   0.0046296
        k(   22) = (   0.0000000   0.0000000  -0.7071068), wk =   0.0046296
        k(   23) = (  -0.1178511   0.1178511  -0.5892557), wk =   0.0046296
        k(   24) = (  -0.2357023   0.2357023  -0.4714045), wk =   0.0046296
        k(   25) = (  -0.2357023   0.2357023  -0.2357023), wk =   0.0046296
        k(   26) = (  -0.3535534   0.3535534  -0.1178511), wk =   0.0046296
        k(   27) = (  -0.4714045   0.4714045  -0.0000000), wk =   0.0046296
        k(   28) = (   0.1178511  -0.1178511  -0.5892557), wk =   0.0046296
        k(   29) = (   0.0000000   0.0000000  -0.4714045), wk =   0.0046296
        k(   30) = (  -0.1178511   0.1178511  -0.3535534), wk =   0.0046296
        k(   31) = (  -0.1178511   0.1178511  -0.1178511), wk =   0.0046296
        k(   32) = (  -0.2357023   0.2357023   0.0000000), wk =   0.0046296
        k(   33) = (  -0.3535534   0.3535534   0.1178511), wk =   0.0046296
        k(   34) = (   0.2357023  -0.2357023  -0.4714045), wk =   0.0046296
        k(   35) = (   0.1178511  -0.1178511  -0.3535534), wk =   0.0046296
        k(   36) = (   0.0000000   0.0000000  -0.2357023), wk =   0.0046296
        k(   37) = (   0.1178511   0.1178511  -0.1178511), wk =   0.0046296
        k(   38) = (   0.0000000   0.2357023   0.0000000), wk =   0.0046296
        k(   39) = (  -0.1178511   0.3535534   0.1178511), wk =   0.0046296
        k(   40) = (   0.4714045  -0.2357023  -0.4714045), wk =   0.0046296
        k(   41) = (   0.3535534  -0.1178511  -0.3535534), wk =   0.0046296
        k(   42) = (   0.2357023   0.0000000  -0.2357023), wk =   0.0046296
        k(   43) = (   0.2357023   0.0000000   0.0000000), wk =   0.0046296
        k(   44) = (   0.1178511   0.1178511   0.1178511), wk =   0.0046296
        k(   45) = (   0.0000000   0.2357023   0.2357023), wk =   0.0046296
        k(   46) = (   0.5892557  -0.3535534  -0.3535534), wk =   0.0046296
        k(   47) = (   0.4714045  -0.2357023  -0.2357023), wk =   0.0046296
        k(   48) = (   0.3535534  -0.1178511  -0.1178511), wk =   0.0046296
        k(   49) = (   0.3535534  -0.1178511   0.1178511), wk =   0.0046296
        k(   50) = (   0.2357023   0.0000000   0.2357023), wk =   0.0046296
        k(   51) = (   0.1178511   0.1178511   0.3535534), wk =   0.0046296
        k(   52) = (   0.7071068  -0.4714045  -0.2357023), wk =   0.0046296
        k(   53) = (   0.5892557  -0.3535534  -0.1178511), wk =   0.0046296
        k(   54) = (   0.4714045  -0.2357023   0.0000000), wk =   0.0046296
        k(   55) = (  -0.2357023   0.4714045  -0.4714045), wk =   0.0046296
        k(   56) = (  -0.3535534   0.5892557  -0.3535534), wk =   0.0046296
        k(   57) = (  -0.4714045   0.7071068  -0.2357023), wk =   0.0046296
        k(   58) = (   0.1178511   0.1178511  -0.8249579), wk =   0.0046296
        k(   59) = (   0.0000000   0.2357023  -0.7071068), wk =   0.0046296
        k(   60) = (  -0.1178511   0.3535534  -0.5892557), wk =   0.0046296
        k(   61) = (  -0.1178511   0.3535534  -0.3535534), wk =   0.0046296
        k(   62) = (  -0.2357023   0.4714045  -0.2357023), wk =   0.0046296
        k(   63) = (  -0.3535534   0.5892557  -0.1178511), wk =   0.0046296
        k(   64) = (   0.2357023   0.0000000  -0.7071068), wk =   0.0046296
        k(   65) = (   0.1178511   0.1178511  -0.5892557), wk =   0.0046296
        k(   66) = (  -0.0000000   0.2357023  -0.4714045), wk =   0.0046296
        k(   67) = (   0.0000000   0.2357023  -0.2357023), wk =   0.0046296
        k(   68) = (  -0.1178511   0.3535534  -0.1178511), wk =   0.0046296
        k(   69) = (  -0.2357023   0.4714045   0.0000000), wk =   0.0046296
        k(   70) = (   0.3535534  -0.1178511  -0.5892557), wk =   0.0046296
        k(   71) = (   0.2357023  -0.0000000  -0.4714045), wk =   0.0046296
        k(   72) = (   0.1178511   0.1178511  -0.3535534), wk =   0.0046296
        k(   73) = (   0.2357023   0.2357023  -0.2357023), wk =   0.0046296
        k(   74) = (   0.1178511   0.3535534  -0.1178511), wk =   0.0046296
        k(   75) = (   0.0000000   0.4714045   0.0000000), wk =   0.0046296
        k(   76) = (   0.5892557  -0.1178511  -0.5892557), wk =   0.0046296
        k(   77) = (   0.4714045  -0.0000000  -0.4714045), wk =   0.0046296
        k(   78) = (   0.3535534   0.1178511  -0.3535534), wk =   0.0046296
        k(   79) = (   0.3535534   0.1178511  -0.1178511), wk =   0.0046296
        k(   80) = (   0.2357023   0.2357023   0.0000000), wk =   0.0046296
        k(   81) = (   0.1178511   0.3535534   0.1178511), wk =   0.0046296
        k(   82) = (   0.7071068  -0.2357023  -0.4714045), wk =   0.0046296
        k(   83) = (   0.5892557  -0.1178511  -0.3535534), wk =   0.0046296
        k(   84) = (   0.4714045   0.0000000  -0.2357023), wk =   0.0046296
        k(   85) = (   0.4714045   0.0000000   0.0000000), wk =   0.0046296
        k(   86) = (   0.3535534   0.1178511   0.1178511), wk =   0.0046296
        k(   87) = (   0.2357023   0.2357023   0.2357023), wk =   0.0046296
        k(   88) = (   0.8249579  -0.3535534  -0.3535534), wk =   0.0046296
        k(   89) = (   0.7071068  -0.2357023  -0.2357023), wk =   0.0046296
        k(   90) = (   0.5892557  -0.1178511  -0.1178511), wk =   0.0046296
        k(   91) = (  -0.1178511   0.5892557  -0.5892557), wk =   0.0046296
        k(   92) = (  -0.2357023   0.7071068  -0.4714045), wk =   0.0046296
        k(   93) = (  -0.3535534   0.8249579  -0.3535534), wk =   0.0046296
        k(   94) = (   0.2357023   0.2357023  -0.9428090), wk =   0.0046296
        k(   95) = (   0.1178511   0.3535534  -0.8249579), wk =   0.0046296
        k(   96) = (  -0.0000000   0.4714045  -0.7071068), wk =   0.0046296
        k(   97) = (  -0.0000000   0.4714045  -0.4714045), wk =   0.0046296
        k(   98) = (  -0.1178511   0.5892557  -0.3535534), wk =   0.0046296
        k(   99) = (  -0.2357023   0.7071068  -0.2357023), wk =   0.0046296
        k(  100) = (   0.3535534   0.1178511  -0.8249579), wk =   0.0046296
        k(  101) = (   0.2357023   0.2357023  -0.7071068), wk =   0.0046296
        k(  102) = (   0.1178511   0.3535534  -0.5892557), wk =   0.0046296
        k(  103) = (   0.1178511   0.3535534  -0.3535534), wk =   0.0046296
        k(  104) = (   0.0000000   0.4714045  -0.2357023), wk =   0.0046296
        k(  105) = (  -0.1178511   0.5892557  -0.1178511), wk =   0.0046296
        k(  106) = (   0.4714045  -0.0000000  -0.7071068), wk =   0.0046296
        k(  107) = (   0.3535534   0.1178511  -0.5892557), wk =   0.0046296
        k(  108) = (   0.2357023   0.2357023  -0.4714045), wk =   0.0046296
        k(  109) = (  -0.3535534  -0.3535534   0.3535534), wk =   0.0046296
        k(  110) = (  -0.4714045  -0.2357023   0.4714045), wk =   0.0046296
        k(  111) = (  -0.5892557  -0.1178511   0.5892557), wk =   0.0046296
        k(  112) = (   0.0000000  -0.7071068   0.0000000), wk =   0.0046296
        k(  113) = (  -0.1178511  -0.5892557   0.1178511), wk =   0.0046296
        k(  114) = (  -0.2357023  -0.4714045   0.2357023), wk =   0.0046296
        k(  115) = (  -0.2357023  -0.4714045   0.4714045), wk =   0.0046296
        k(  116) = (  -0.3535534  -0.3535534   0.5892557), wk =   0.0046296
        k(  117) = (  -0.4714045  -0.2357023   0.7071068), wk =   0.0046296
        k(  118) = (   0.1178511  -0.8249579   0.1178511), wk =   0.0046296
        k(  119) = (   0.0000000  -0.7071068   0.2357023), wk =   0.0046296
        k(  120) = (  -0.1178511  -0.5892557   0.3535534), wk =   0.0046296
        k(  121) = (  -0.1178511  -0.5892557   0.5892557), wk =   0.0046296
        k(  122) = (  -0.2357023  -0.4714045   0.7071068), wk =   0.0046296
        k(  123) = (  -0.3535534  -0.3535534   0.8249579), wk =   0.0046296
        k(  124) = (   0.2357023  -0.9428090   0.2357023), wk =   0.0046296
        k(  125) = (   0.1178511  -0.8249579   0.3535534), wk =   0.0046296
        k(  126) = (  -0.0000000  -0.7071068   0.4714045), wk =   0.0046296
        k(  127) = (  -0.7071068   0.0000000   0.0000000), wk =   0.0046296
        k(  128) = (  -0.8249579   0.1178511   0.1178511), wk =   0.0046296
        k(  129) = (  -0.9428090   0.2357023   0.2357023), wk =   0.0046296
        k(  130) = (  -0.3535534  -0.3535534  -0.3535534), wk =   0.0046296
        k(  131) = (  -0.4714045  -0.2357023  -0.2357023), wk =   0.0046296
        k(  132) = (  -0.5892557  -0.1178511  -0.1178511), wk =   0.0046296
        k(  133) = (  -0.5892557  -0.1178511   0.1178511), wk =   0.0046296
        k(  134) = (  -0.7071068   0.0000000   0.2357023), wk =   0.0046296
        k(  135) = (  -0.8249579   0.1178511   0.3535534), wk =   0.0046296
        k(  136) = (  -0.2357023  -0.4714045  -0.2357023), wk =   0.0046296
        k(  137) = (  -0.3535534  -0.3535534  -0.1178511), wk =   0.0046296
        k(  138) = (  -0.4714045  -0.2357023  -0.0000000), wk =   0.0046296
        k(  139) = (  -0.4714045  -0.2357023   0.2357023), wk =   0.0046296
        k(  140) = (  -0.5892557  -0.1178511   0.3535534), wk =   0.0046296
        k(  141) = (  -0.7071068  -0.0000000   0.4714045), wk =   0.0046296
        k(  142) = (  -0.1178511  -0.5892557  -0.1178511), wk =   0.0046296
        k(  143) = (  -0.2357023  -0.4714045   0.0000000), wk =   0.0046296
        k(  144) = (  -0.3535534  -0.3535534   0.1178511), wk =   0.0046296
        k(  145) = (  -0.2357023  -0.2357023   0.2357023), wk =   0.0046296
        k(  146) = (  -0.3535534  -0.1178511   0.3535534), wk =   0.0046296
        k(  147) = (  -0.4714045  -0.0000000   0.4714045), wk =   0.0046296
        k(  148) = (   0.1178511  -0.5892557  -0.1178511), wk =   0.0046296
        k(  149) = (   0.0000000  -0.4714045   0.0000000), wk =   0.0046296
        k(  150) = (  -0.1178511  -0.3535534   0.1178511), wk =   0.0046296
        k(  151) = (  -0.1178511  -0.3535534   0.3535534), wk =   0.0046296
        k(  152) = (  -0.2357023  -0.2357023   0.4714045), wk =   0.0046296
        k(  153) = (  -0.3535534  -0.1178511   0.5892557), wk =   0.0046296
        k(  154) = (   0.2357023  -0.7071068   0.0000000), wk =   0.0046296
        k(  155) = (   0.1178511  -0.5892557   0.1178511), wk =   0.0046296
        k(  156) = (  -0.0000000  -0.4714045   0.2357023), wk =   0.0046296
        k(  157) = (  -0.0000000  -0.4714045   0.4714045), wk =   0.0046296
        k(  158) = (  -0.1178511  -0.3535534   0.5892557), wk =   0.0046296
        k(  159) = (  -0.2357023  -0.2357023   0.7071068), wk =   0.0046296
        k(  160) = (   0.3535534  -0.8249579   0.1178511), wk =   0.0046296
        k(  161) = (   0.2357023  -0.7071068   0.2357023), wk =   0.0046296
        k(  162) = (   0.1178511  -0.5892557   0.3535534), wk =   0.0046296
        k(  163) = (  -0.5892557   0.1178511  -0.1178511), wk =   0.0046296
        k(  164) = (  -0.7071068   0.2357023   0.0000000), wk =   0.0046296
        k(  165) = (  -0.8249579   0.3535534   0.1178511), wk =   0.0046296
        k(  166) = (  -0.2357023  -0.2357023  -0.4714045), wk =   0.0046296
        k(  167) = (  -0.3535534  -0.1178511  -0.3535534), wk =   0.0046296
        k(  168) = (  -0.4714045  -0.0000000  -0.2357023), wk =   0.0046296
        k(  169) = (  -0.4714045   0.0000000   0.0000000), wk =   0.0046296
        k(  170) = (  -0.5892557   0.1178511   0.1178511), wk =   0.0046296
        k(  171) = (  -0.7071068   0.2357023   0.2357023), wk =   0.0046296
        k(  172) = (  -0.1178511  -0.3535534  -0.3535534), wk =   0.0046296
        k(  173) = (  -0.2357023  -0.2357023  -0.2357023), wk =   0.0046296
        k(  174) = (  -0.3535534  -0.1178511  -0.1178511), wk =   0.0046296
        k(  175) = (  -0.3535534  -0.1178511   0.1178511), wk =   0.0046296
        k(  176) = (  -0.4714045  -0.0000000   0.2357023), wk =   0.0046296
        k(  177) = (  -0.5892557   0.1178511   0.3535534), wk =   0.0046296
        k(  178) = (   0.0000000  -0.4714045  -0.2357023), wk =   0.0046296
        k(  179) = (  -0.1178511  -0.3535534  -0.1178511), wk =   0.0046296
        k(  180) = (  -0.2357023  -0.2357023   0.0000000), wk =   0.0046296
        k(  181) = (  -0.1178511  -0.1178511   0.1178511), wk =   0.0046296
        k(  182) = (  -0.2357023   0.0000000   0.2357023), wk =   0.0046296
        k(  183) = (  -0.3535534   0.1178511   0.3535534), wk =   0.0046296
        k(  184) = (   0.2357023  -0.4714045  -0.2357023), wk =   0.0046296
        k(  185) = (   0.1178511  -0.3535534  -0.1178511), wk =   0.0046296
        k(  186) = (   0.0000000  -0.2357023   0.0000000), wk =   0.0046296
        k(  187) = (   0.0000000  -0.2357023   0.2357023), wk =   0.0046296
        k(  188) = (  -0.1178511  -0.1178511   0.3535534), wk =   0.0046296
        k(  189) = (  -0.2357023   0.0000000   0.4714045), wk =   0.0046296
        k(  190) = (   0.3535534  -0.5892557  -0.1178511), wk =   0.0046296
        k(  191) = (   0.2357023  -0.4714045  -0.0000000), wk =   0.0046296
        k(  192) = (   0.1178511  -0.3535534   0.1178511), wk =   0.0046296
        k(  193) = (   0.1178511  -0.3535534   0.3535534), wk =   0.0046296
        k(  194) = (   0.0000000  -0.2357023   0.4714045), wk =   0.0046296
        k(  195) = (  -0.1178511  -0.1178511   0.5892557), wk =   0.0046296
        k(  196) = (   0.4714045  -0.7071068  -0.0000000), wk =   0.0046296
        k(  197) = (   0.3535534  -0.5892557   0.1178511), wk =   0.0046296
        k(  198) = (   0.2357023  -0.4714045   0.2357023), wk =   0.0046296
        k(  199) = (  -0.4714045   0.2357023  -0.2357023), wk =   0.0046296
        k(  200) = (  -0.5892557   0.3535534  -0.1178511), wk =   0.0046296
        k(  201) = (  -0.7071068   0.4714045  -0.0000000), wk =   0.0046296
        k(  202) = (  -0.1178511  -0.1178511  -0.5892557), wk =   0.0046296
        k(  203) = (  -0.2357023   0.0000000  -0.4714045), wk =   0.0046296
        k(  204) = (  -0.3535534   0.1178511  -0.3535534), wk =   0.0046296
        k(  205) = (  -0.3535534   0.1178511  -0.1178511), wk =   0.0046296
        k(  206) = (  -0.4714045   0.2357023  -0.0000000), wk =   0.0046296
        k(  207) = (  -0.5892557   0.3535534   0.1178511), wk =   0.0046296
        k(  208) = (   0.0000000  -0.2357023  -0.4714045), wk =   0.0046296
        k(  209) = (  -0.1178511  -0.1178511  -0.3535534), wk =   0.0046296
        k(  210) = (  -0.2357023   0.0000000  -0.2357023), wk =   0.0046296
        k(  211) = (  -0.2357023   0.0000000   0.0000000), wk =   0.0046296
        k(  212) = (  -0.3535534   0.1178511   0.1178511), wk =   0.0046296
        k(  213) = (  -0.4714045   0.2357023   0.2357023), wk =   0.0046296
        k(  214) = (   0.1178511  -0.3535534  -0.3535534), wk =   0.0046296
        k(  215) = (   0.0000000  -0.2357023  -0.2357023), wk =   0.0046296
        k(  216) = (  -0.1178511  -0.1178511  -0.1178511), wk =   0.0046296

                       cryst. coord.
        k(    1) = (   0.0000000   0.0000000   0.0000000), wk =   0.0046296
        k(    2) = (   0.0000000   0.0000000   0.1666667), wk =   0.0046296
        k(    3) = (   0.0000000   0.0000000   0.3333333), wk =   0.0046296
        k(    4) = (   0.0000000   0.0000000  -0.5000000), wk =   0.0046296
        k(    5) = (   0.0000000   0.0000000  -0.3333333), wk =   0.0046296
        k(    6) = (   0.0000000   0.0000000  -0.1666667), wk =   0.0046296
        k(    7) = (   0.0000000   0.1666667   0.0000000), wk =   0.0046296
        k(    8) = (   0.0000000   0.1666667   0.1666667), wk =   0.0046296
        k(    9) = (   0.0000000   0.1666667   0.3333333), wk =   0.0046296
        k(   10) = (   0.0000000   0.1666667  -0.5000000), wk =   0.0046296
        k(   11) = (   0.0000000   0.1666667  -0.3333333), wk =   0.0046296
        k(   12) = (   0.0000000   0.1666667  -0.1666667), wk =   0.0046296
        k(   13) = (   0.0000000   0.3333333   0.0000000), wk =   0.0046296
        k(   14) = (   0.0000000   0.3333333   0.1666667), wk =   0.0046296
        k(   15) = (   0.0000000   0.3333333   0.3333333), wk =   0.0046296
        k(   16) = (   0.0000000   0.3333333  -0.5000000), wk =   0.0046296
        k(   17) = (   0.0000000   0.3333333  -0.3333333), wk =   0.0046296
        k(   18) = (   0.0000000   0.3333333  -0.1666667), wk =   0.0046296
        k(   19) = (   0.0000000  -0.5000000   0.0000000), wk =   0.0046296
        k(   20) = (   0.0000000  -0.5000000   0.1666667), wk =   0.0046296
        k(   21) = (   0.0000000  -0.5000000   0.3333333), wk =   0.0046296
        k(   22) = (   0.0000000  -0.5000000  -0.5000000), wk =   0.0046296
        k(   23) = (   0.0000000  -0.5000000  -0.3333333), wk =   0.0046296
        k(   24) = (   0.0000000  -0.5000000  -0.1666667), wk =   0.0046296
        k(   25) = (   0.0000000  -0.3333333   0.0000000), wk =   0.0046296
        k(   26) = (   0.0000000  -0.3333333   0.1666667), wk =   0.0046296
        k(   27) = (   0.0000000  -0.3333333   0.3333333), wk =   0.0046296
        k(   28) = (   0.0000000  -0.3333333  -0.5000000), wk =   0.0046296
        k(   29) = (   0.0000000  -0.3333333  -0.3333333), wk =   0.0046296
        k(   30) = (   0.0000000  -0.3333333  -0.1666667), wk =   0.0046296
        k(   31) = (   0.0000000  -0.1666667   0.0000000), wk =   0.0046296
        k(   32) = (   0.0000000  -0.1666667   0.1666667), wk =   0.0046296
        k(   33) = (   0.0000000  -0.1666667   0.3333333), wk =   0.0046296
        k(   34) = (   0.0000000  -0.1666667  -0.5000000), wk =   0.0046296
        k(   35) = (   0.0000000  -0.1666667  -0.3333333), wk =   0.0046296
        k(   36) = (   0.0000000  -0.1666667  -0.1666667), wk =   0.0046296
        k(   37) = (   0.1666667   0.0000000   0.0000000), wk =   0.0046296
        k(   38) = (   0.1666667   0.0000000   0.1666667), wk =   0.0046296
        k(   39) = (   0.1666667   0.0000000   0.3333333), wk =   0.0046296
        k(   40) = (   0.1666667   0.0000000  -0.5000000), wk =   0.0046296
        k(   41) = (   0.1666667   0.0000000  -0.3333333), wk =   0.0046296
        k(   42) = (   0.1666667   0.0000000  -0.1666667), wk =   0.0046296
        k(   43) = (   0.1666667   0.1666667   0.0000000), wk =   0.0046296
        k(   44) = (   0.1666667   0.1666667   0.1666667), wk =   0.0046296
        k(   45) = (   0.1666667   0.1666667   0.3333333), wk =   0.0046296
        k(   46) = (   0.1666667   0.1666667  -0.5000000), wk =   0.0046296
        k(   47) = (   0.1666667   0.1666667  -0.3333333), wk =   0.0046296
        k(   48) = (   0.1666667   0.1666667  -0.1666667), wk =   0.0046296
        k(   49) = (   0.1666667   0.3333333   0.0000000), wk =   0.0046296
        k(   50) = (   0.1666667   0.3333333   0.1666667), wk =   0.0046296
        k(   51) = (   0.1666667   0.3333333   0.3333333), wk =   0.0046296
        k(   52) = (   0.1666667   0.3333333  -0.5000000), wk =   0.0046296
        k(   53) = (   0.1666667   0.3333333  -0.3333333), wk =   0.0046296
        k(   54) = (   0.1666667   0.3333333  -0.1666667), wk =   0.0046296
        k(   55) = (   0.1666667  -0.5000000   0.0000000), wk =   0.0046296
        k(   56) = (   0.1666667  -0.5000000   0.1666667), wk =   0.0046296
        k(   57) = (   0.1666667  -0.5000000   0.3333333), wk =   0.0046296
        k(   58) = (   0.1666667  -0.5000000  -0.5000000), wk =   0.0046296
        k(   59) = (   0.1666667  -0.5000000  -0.3333333), wk =   0.0046296
        k(   60) = (   0.1666667  -0.5000000  -0.1666667), wk =   0.0046296
        k(   61) = (   0.1666667  -0.3333333   0.0000000), wk =   0.0046296
        k(   62) = (   0.1666667  -0.3333333   0.1666667), wk =   0.0046296
        k(   63) = (   0.1666667  -0.3333333   0.3333333), wk =   0.0046296
        k(   64) = (   0.1666667  -0.3333333  -0.5000000), wk =   0.0046296
        k(   65) = (   0.1666667  -0.3333333  -0.3333333), wk =   0.0046296
        k(   66) = (   0.1666667  -0.3333333  -0.1666667), wk =   0.0046296
        k(   67) = (   0.1666667  -0.1666667   0.0000000), wk =   0.0046296
        k(   68) = (   0.1666667  -0.1666667   0.1666667), wk =   0.0046296
        k(   69) = (   0.1666667  -0.1666667   0.3333333), wk =   0.0046296
        k(   70) = (   0.1666667  -0.1666667  -0.5000000), wk =   0.0046296
        k(   71) = (   0.1666667  -0.1666667  -0.3333333), wk =   0.0046296
        k(   72) = (   0.1666667  -0.1666667  -0.1666667), wk =   0.0046296
        k(   73) = (   0.3333333   0.0000000   0.0000000), wk =   0.0046296
        k(   74) = (   0.3333333   0.0000000   0.1666667), wk =   0.0046296
        k(   75) = (   0.3333333   0.0000000   0.3333333), wk =   0.0046296
        k(   76) = (   0.3333333   0.0000000  -0.5000000), wk =   0.0046296
        k(   77) = (   0.3333333   0.0000000  -0.3333333), wk =   0.0046296
        k(   78) = (   0.3333333   0.0000000  -0.1666667), wk =   0.0046296
        k(   79) = (   0.3333333   0.1666667   0.0000000), wk =   0.0046296
        k(   80) = (   0.3333333   0.1666667   0.1666667), wk =   0.0046296
        k(   81) = (   0.3333333   0.1666667   0.3333333), wk =   0.0046296
        k(   82) = (   0.3333333   0.1666667  -0.5000000), wk =   0.0046296
        k(   83) = (   0.3333333   0.1666667  -0.3333333), wk =   0.0046296
        k(   84) = (   0.3333333   0.1666667  -0.1666667), wk =   0.0046296
        k(   85) = (   0.3333333   0.3333333   0.0000000), wk =   0.0046296
        k(   86) = (   0.3333333   0.3333333   0.1666667), wk =   0.0046296
        k(   87) = (   0.3333333   0.3333333   0.3333333), wk =   0.0046296
        k(   88) = (   0.3333333   0.3333333  -0.5000000), wk =   0.0046296
        k(   89) = (   0.3333333   0.3333333  -0.3333333), wk =   0.0046296
        k(   90) = (   0.3333333   0.3333333  -0.1666667), wk =   0.0046296
        k(   91) = (   0.3333333  -0.5000000   0.0000000), wk =   0.0046296
        k(   92) = (   0.3333333  -0.5000000   0.1666667), wk =   0.0046296
        k(   93) = (   0.3333333  -0.5000000   0.3333333), wk =   0.0046296
        k(   94) = (   0.3333333  -0.5000000  -0.5000000), wk =   0.0046296
        k(   95) = (   0.3333333  -0.5000000  -0.3333333), wk =   0.0046296
        k(   96) = (   0.3333333  -0.5000000  -0.1666667), wk =   0.0046296
        k(   97) = (   0.3333333  -0.3333333   0.0000000), wk =   0.0046296
        k(   98) = (   0.3333333  -0.3333333   0.1666667), wk =   0.0046296
        k(   99) = (   0.3333333  -0.3333333   0.3333333), wk =   0.0046296
        k(  100) = (   0.3333333  -0.3333333  -0.5000000), wk =   0.0046296
        k(  101) = (   0.3333333  -0.3333333  -0.3333333), wk =   0.0046296
        k(  102) = (   0.3333333  -0.3333333  -0.1666667), wk =   0.0046296
        k(  103) = (   0.3333333  -0.1666667   0.0000000), wk =   0.0046296
        k(  104) = (   0.3333333  -0.1666667   0.1666667), wk =   0.0046296
        k(  105) = (   0.3333333  -0.1666667   0.3333333), wk =   0.0046296
        k(  106) = (   0.3333333  -0.1666667  -0.5000000), wk =   0.0046296
        k(  107) = (   0.3333333  -0.1666667  -0.3333333), wk =   0.0046296
        k(  108) = (   0.3333333  -0.1666667  -0.1666667), wk =   0.0046296
        k(  109) = (  -0.5000000   0.0000000   0.0000000), wk =   0.0046296
        k(  110) = (  -0.5000000   0.0000000   0.1666667), wk =   0.0046296
        k(  111) = (  -0.5000000   0.0000000   0.3333333), wk =   0.0046296
        k(  112) = (  -0.5000000   0.0000000  -0.5000000), wk =   0.0046296
        k(  113) = (  -0.5000000   0.0000000  -0.3333333), wk =   0.0046296
        k(  114) = (  -0.5000000   0.0000000  -0.1666667), wk =   0.0046296
        k(  115) = (  -0.5000000   0.1666667   0.0000000), wk =   0.0046296
        k(  116) = (  -0.5000000   0.1666667   0.1666667), wk =   0.0046296
        k(  117) = (  -0.5000000   0.1666667   0.3333333), wk =   0.0046296
        k(  118) = (  -0.5000000   0.1666667  -0.5000000), wk =   0.0046296
        k(  119) = (  -0.5000000   0.1666667  -0.3333333), wk =   0.0046296
        k(  120) = (  -0.5000000   0.1666667  -0.1666667), wk =   0.0046296
        k(  121) = (  -0.5000000   0.3333333   0.0000000), wk =   0.0046296
        k(  122) = (  -0.5000000   0.3333333   0.1666667), wk =   0.0046296
        k(  123) = (  -0.5000000   0.3333333   0.3333333), wk =   0.0046296
        k(  124) = (  -0.5000000   0.3333333  -0.5000000), wk =   0.0046296
        k(  125) = (  -0.5000000   0.3333333  -0.3333333), wk =   0.0046296
        k(  126) = (  -0.5000000   0.3333333  -0.1666667), wk =   0.0046296
        k(  127) = (  -0.5000000  -0.5000000   0.0000000), wk =   0.0046296
        k(  128) = (  -0.5000000  -0.5000000   0.1666667), wk =   0.0046296
        k(  129) = (  -0.5000000  -0.5000000   0.3333333), wk =   0.0046296
        k(  130) = (  -0.5000000  -0.5000000  -0.5000000), wk =   0.0046296
        k(  131) = (  -0.5000000  -0.5000000  -0.3333333), wk =   0.0046296
        k(  132) = (  -0.5000000  -0.5000000  -0.1666667), wk =   0.0046296
        k(  133) = (  -0.5000000  -0.3333333   0.0000000), wk =   0.0046296
        k(  134) = (  -0.5000000  -0.3333333   0.1666667), wk =   0.0046296
        k(  135) = (  -0.5000000  -0.3333333   0.3333333), wk =   0.0046296
        k(  136) = (  -0.5000000  -0.3333333  -0.5000000), wk =   0.0046296
        k(  137) = (  -0.5000000  -0.3333333  -0.3333333), wk =   0.0046296
        k(  138) = (  -0.5000000  -0.3333333  -0.1666667), wk =   0.0046296
        k(  139) = (  -0.5000000  -0.1666667   0.0000000), wk =   0.0046296
        k(  140) = (  -0.5000000  -0.1666667   0.1666667), wk =   0.0046296
        k(  141) = (  -0.5000000  -0.1666667   0.3333333), wk =   0.0046296
        k(  142) = (  -0.5000000  -0.1666667  -0.5000000), wk =   0.0046296
        k(  143) = (  -0.5000000  -0.1666667  -0.3333333), wk =   0.0046296
        k(  144) = (  -0.5000000  -0.1666667  -0.1666667), wk =   0.0046296
        k(  145) = (  -0.3333333   0.0000000   0.0000000), wk =   0.0046296
        k(  146) = (  -0.3333333   0.0000000   0.1666667), wk =   0.0046296
        k(  147) = (  -0.3333333   0.0000000   0.3333333), wk =   0.0046296
        k(  148) = (  -0.3333333   0.0000000  -0.5000000), wk =   0.0046296
        k(  149) = (  -0.3333333   0.0000000  -0.3333333), wk =   0.0046296
        k(  150) = (  -0.3333333   0.0000000  -0.1666667), wk =   0.0046296
        k(  151) = (  -0.3333333   0.1666667   0.0000000), wk =   0.0046296
        k(  152) = (  -0.3333333   0.1666667   0.1666667), wk =   0.0046296
        k(  153) = (  -0.3333333   0.1666667   0.3333333), wk =   0.0046296
        k(  154) = (  -0.3333333   0.1666667  -0.5000000), wk =   0.0046296
        k(  155) = (  -0.3333333   0.1666667  -0.3333333), wk =   0.0046296
        k(  156) = (  -0.3333333   0.1666667  -0.1666667), wk =   0.0046296
        k(  157) = (  -0.3333333   0.3333333   0.0000000), wk =   0.0046296
        k(  158) = (  -0.3333333   0.3333333   0.1666667), wk =   0.0046296
        k(  159) = (  -0.3333333   0.3333333   0.3333333), wk =   0.0046296
        k(  160) = (  -0.3333333   0.3333333  -0.5000000), wk =   0.0046296
        k(  161) = (  -0.3333333   0.3333333  -0.3333333), wk =   0.0046296
        k(  162) = (  -0.3333333   0.3333333  -0.1666667), wk =   0.0046296
        k(  163) = (  -0.3333333  -0.5000000   0.0000000), wk =   0.0046296
        k(  164) = (  -0.3333333  -0.5000000   0.1666667), wk =   0.0046296
        k(  165) = (  -0.3333333  -0.5000000   0.3333333), wk =   0.0046296
        k(  166) = (  -0.3333333  -0.5000000  -0.5000000), wk =   0.0046296
        k(  167) = (  -0.3333333  -0.5000000  -0.3333333), wk =   0.0046296
        k(  168) = (  -0.3333333  -0.5000000  -0.1666667), wk =   0.0046296
        k(  169) = (  -0.3333333  -0.3333333   0.0000000), wk =   0.0046296
        k(  170) = (  -0.3333333  -0.3333333   0.1666667), wk =   0.0046296
        k(  171) = (  -0.3333333  -0.3333333   0.3333333), wk =   0.0046296
        k(  172) = (  -0.3333333  -0.3333333  -0.5000000), wk =   0.0046296
        k(  173) = (  -0.3333333  -0.3333333  -0.3333333), wk =   0.0046296
        k(  174) = (  -0.3333333  -0.3333333  -0.1666667), wk =   0.0046296
        k(  175) = (  -0.3333333  -0.1666667   0.0000000), wk =   0.0046296
        k(  176) = (  -0.3333333  -0.1666667   0.1666667), wk =   0.0046296
        k(  177) = (  -0.3333333  -0.1666667   0.3333333), wk =   0.0046296
        k(  178) = (  -0.3333333  -0.1666667  -0.5000000), wk =   0.0046296
        k(  179) = (  -0.3333333  -0.1666667  -0.3333333), wk =   0.0046296
        k(  180) = (  -0.3333333  -0.1666667  -0.1666667), wk =   0.0046296
        k(  181) = (  -0.1666667   0.0000000   0.0000000), wk =   0.0046296
        k(  182) = (  -0.1666667   0.0000000   0.1666667), wk =   0.0046296
        k(  183) = (  -0.1666667   0.0000000   0.3333333), wk =   0.0046296
        k(  184) = (  -0.1666667   0.0000000  -0.5000000), wk =   0.0046296
        k(  185) = (  -0.1666667   0.0000000  -0.3333333), wk =   0.0046296
        k(  186) = (  -0.1666667   0.0000000  -0.1666667), wk =   0.0046296
        k(  187) = (  -0.1666667   0.1666667   0.0000000), wk =   0.0046296
        k(  188) = (  -0.1666667   0.1666667   0.1666667), wk =   0.0046296
        k(  189) = (  -0.1666667   0.1666667   0.3333333), wk =   0.0046296
        k(  190) = (  -0.1666667   0.1666667  -0.5000000), wk =   0.0046296
        k(  191) = (  -0.1666667   0.1666667  -0.3333333), wk =   0.0046296
        k(  192) = (  -0.1666667   0.1666667  -0.1666667), wk =   0.0046296
        k(  193) = (  -0.1666667   0.3333333   0.0000000), wk =   0.0046296
        k(  194) = (  -0.1666667   0.3333333   0.1666667), wk =   0.0046296
        k(  195) = (  -0.1666667   0.3333333   0.3333333), wk =   0.0046296
        k(  196) = (  -0.1666667   0.3333333  -0.5000000), wk =   0.0046296
        k(  197) = (  -0.1666667   0.3333333  -0.3333333), wk =   0.0046296
        k(  198) = (  -0.1666667   0.3333333  -0.1666667), wk =   0.0046296
        k(  199) = (  -0.1666667  -0.5000000   0.0000000), wk =   0.0046296
        k(  200) = (  -0.1666667  -0.5000000   0.1666667), wk =   0.0046296
        k(  201) = (  -0.1666667  -0.5000000   0.3333333), wk =   0.0046296
        k(  202) = (  -0.1666667  -0.5000000  -0.5000000), wk =   0.0046296
        k(  203) = (  -0.1666667  -0.5000000  -0.3333333), wk =   0.0046296
        k(  204) = (  -0.1666667  -0.5000000  -0.1666667), wk =   0.0046296
        k(  205) = (  -0.1666667  -0.3333333   0.0000000), wk =   0.0046296
        k(  206) = (  -0.1666667  -0.3333333   0.1666667), wk =   0.0046296
        k(  207) = (  -0.1666667  -0.3333333   0.3333333), wk =   0.0046296
        k(  208) = (  -0.1666667  -0.3333333  -0.5000000), wk =   0.0046296
        k(  209) = (  -0.1666667  -0.3333333  -0.3333333), wk =   0.0046296
        k(  210) = (  -0.1666667  -0.3333333  -0.1666667), wk =   0.0046296
        k(  211) = (  -0.1666667  -0.1666667   0.0000000), wk =   0.0046296
        k(  212) = (  -0.1666667  -0.1666667   0.1666667), wk =   0.0046296
        k(  213) = (  -0.1666667  -0.1666667   0.3333333), wk =   0.0046296
        k(  214) = (  -0.1666667  -0.1666667  -0.5000000), wk =   0.0046296
        k(  215) = (  -0.1666667  -0.1666667  -0.3333333), wk =   0.0046296
        k(  216) = (  -0.1666667  -0.1666667  -0.1666667), wk =   0.0046296

     Dense  grid:    47855 G-vectors     FFT dimensions: (  54,  54,  54)

     Smooth grid:    16889 G-vectors     FFT dimensions: (  36,  36,  36)

     Dynamical RAM for                 wfc:       0.13 MB

     Dynamical RAM for     wfc (w. buffer):      56.05 MB

     Dynamical RAM for           str. fact:       0.73 MB

     Dynamical RAM for           local pot:       0.00 MB

     Dynamical RAM for          nlocal pot:       1.17 MB

     Dynamical RAM for                qrad:       1.76 MB

     Dynamical RAM for          rho,v,vnew:      11.59 MB

     Dynamical RAM for               rhoin:       3.86 MB

     Dynamical RAM for            rho*nmix:      23.37 MB

     Dynamical RAM for           G-vectors:       2.87 MB

     Dynamical RAM for          h,s,v(r/c):       0.00 MB

     Dynamical RAM for          <psi|beta>:       0.00 MB

     Dynamical RAM for                 psi:       0.26 MB

     Dynamical RAM for                hpsi:       0.26 MB

     Dynamical RAM for      wfcinit/wfcrot:       0.52 MB

     Estimated static dynamical RAM per process >      86.70 MB

     Estimated max dynamical RAM per process >     110.59 MB
     Generating pointlists ...
     new r_m :   0.2526 (alat units)  1.8332 (a.u.) for type    1

     Initial potential from superposition of free atoms

     starting charge       7.9989, renormalised to       8.0000
     Starting wfcs are    8 randomized atomic wfcs

     total cpu time spent up to now is        3.0 secs

     Self-consistent Calculation

     iteration #  1     ecut=    60.00 Ry     beta= 0.40
     Davidson diagonalization with overlap

---- Real-time Memory Report at c_bands before calling an iterative solver
           115 MiB given to the printing process from OS
             0 MiB allocation reported by mallinfo(arena+hblkhd)
          2530 MiB available memory on the node where the printing process lives
------------------
     ethr =  1.00E-02,  avg # of iterations =  2.0

     Threshold (ethr) on eigenvalues was too large:
     Diagonalizing with lowered threshold

     Davidson diagonalization with overlap

---- Real-time Memory Report at c_bands before calling an iterative solver
           118 MiB given to the printing process from OS
             0 MiB allocation reported by mallinfo(arena+hblkhd)
          2533 MiB available memory on the node where the printing process lives
------------------
     ethr =  6.01E-04,  avg # of iterations =  2.0

     total cpu time spent up to now is       11.5 secs

     total energy              =     -17.05177850 Ry
     estimated scf accuracy    <       0.05691106 Ry

     total magnetization       =     0.00 Bohr mag/cell
     absolute magnetization    =     0.00 Bohr mag/cell

     iteration #  2     ecut=    60.00 Ry     beta= 0.40
     Davidson diagonalization with overlap

---- Real-time Memory Report at c_bands before calling an iterative solver
           126 MiB given to the printing process from OS
             0 MiB allocation reported by mallinfo(arena+hblkhd)
          2525 MiB available memory on the node where the printing process lives
------------------
     ethr =  7.11E-04,  avg # of iterations =  1.0

     total cpu time spent up to now is       15.0 secs

     total energy              =     -17.04665780 Ry
     estimated scf accuracy    <       0.01737669 Ry

     total magnetization       =     0.00 Bohr mag/cell
     absolute magnetization    =     0.00 Bohr mag/cell

     iteration #  3     ecut=    60.00 Ry     beta= 0.40
     Davidson diagonalization with overlap

---- Real-time Memory Report at c_bands before calling an iterative solver
           127 MiB given to the printing process from OS
             0 MiB allocation reported by mallinfo(arena+hblkhd)
          2523 MiB available memory on the node where the printing process lives
------------------
     ethr =  2.17E-04,  avg # of iterations =  2.0

     total cpu time spent up to now is       19.0 secs

     total energy              =     -17.04858238 Ry
     estimated scf accuracy    <       0.00040085 Ry

     total magnetization       =    -0.00 Bohr mag/cell
     absolute magnetization    =     0.00 Bohr mag/cell

     iteration #  4     ecut=    60.00 Ry     beta= 0.40
     Davidson diagonalization with overlap

---- Real-time Memory Report at c_bands before calling an iterative solver
           128 MiB given to the printing process from OS
             0 MiB allocation reported by mallinfo(arena+hblkhd)
          2525 MiB available memory on the node where the printing process lives
------------------
     ethr =  5.01E-06,  avg # of iterations =  3.0

     total cpu time spent up to now is       24.0 secs

     total energy              =     -17.04858763 Ry
     estimated scf accuracy    <       0.00053856 Ry

     total magnetization       =     0.00 Bohr mag/cell
     absolute magnetization    =     0.00 Bohr mag/cell

     iteration #  5     ecut=    60.00 Ry     beta= 0.40
     Davidson diagonalization with overlap

---- Real-time Memory Report at c_bands before calling an iterative solver
           129 MiB given to the printing process from OS
             0 MiB allocation reported by mallinfo(arena+hblkhd)
          2524 MiB available memory on the node where the printing process lives
------------------
     ethr =  5.01E-06,  avg # of iterations =  2.0

     total cpu time spent up to now is       28.3 secs

     total energy              =     -17.04864770 Ry
     estimated scf accuracy    <       0.00000082 Ry

     total magnetization       =     0.00 Bohr mag/cell
     absolute magnetization    =     0.00 Bohr mag/cell

     iteration #  6     ecut=    60.00 Ry     beta= 0.40
     Davidson diagonalization with overlap

---- Real-time Memory Report at c_bands before calling an iterative solver
           130 MiB given to the printing process from OS
             0 MiB allocation reported by mallinfo(arena+hblkhd)
          2526 MiB available memory on the node where the printing process lives
------------------
     ethr =  1.03E-08,  avg # of iterations =  7.4

     total cpu time spent up to now is       36.4 secs

     total energy              =     -17.04865366 Ry
     estimated scf accuracy    <       0.00000372 Ry

     total magnetization       =    -0.00 Bohr mag/cell
     absolute magnetization    =     0.00 Bohr mag/cell

     iteration #  7     ecut=    60.00 Ry     beta= 0.40
     Davidson diagonalization with overlap

---- Real-time Memory Report at c_bands before calling an iterative solver
           131 MiB given to the printing process from OS
             0 MiB allocation reported by mallinfo(arena+hblkhd)
          2525 MiB available memory on the node where the printing process lives
------------------
     ethr =  1.03E-08,  avg # of iterations =  2.0

     total cpu time spent up to now is       40.9 secs

     total energy              =     -17.04866397 Ry
     estimated scf accuracy    <       0.00000095 Ry

     total magnetization       =     0.00 Bohr mag/cell
     absolute magnetization    =     0.00 Bohr mag/cell

     iteration #  8     ecut=    60.00 Ry     beta= 0.40
     Davidson diagonalization with overlap

---- Real-time Memory Report at c_bands before calling an iterative solver
           132 MiB given to the printing process from OS
             0 MiB allocation reported by mallinfo(arena+hblkhd)
          2526 MiB available memory on the node where the printing process lives
------------------
     ethr =  1.03E-08,  avg # of iterations =  3.7

     total cpu time spent up to now is       47.0 secs

     total energy              =     -17.04868118 Ry
     estimated scf accuracy    <       0.00003294 Ry

     total magnetization       =     0.00 Bohr mag/cell
     absolute magnetization    =     0.00 Bohr mag/cell

     iteration #  9     ecut=    60.00 Ry     beta= 0.40
     Davidson diagonalization with overlap

---- Real-time Memory Report at c_bands before calling an iterative solver
           133 MiB given to the printing process from OS
             0 MiB allocation reported by mallinfo(arena+hblkhd)
          2522 MiB available memory on the node where the printing process lives
------------------
     ethr =  1.03E-08,  avg # of iterations =  3.1

     total cpu time spent up to now is       52.0 secs

     total energy              =     -17.04869560 Ry
     estimated scf accuracy    <       0.00007234 Ry

     total magnetization       =     0.00 Bohr mag/cell
     absolute magnetization    =     0.00 Bohr mag/cell

     iteration # 10     ecut=    60.00 Ry     beta= 0.40
     Davidson diagonalization with overlap

---- Real-time Memory Report at c_bands before calling an iterative solver
           134 MiB given to the printing process from OS
             0 MiB allocation reported by mallinfo(arena+hblkhd)
          2517 MiB available memory on the node where the printing process lives
------------------
     ethr =  1.03E-08,  avg # of iterations =  7.6

     total cpu time spent up to now is       60.7 secs

     total energy              =     -17.04866725 Ry
     estimated scf accuracy    <       0.00028525 Ry

     total magnetization       =    -0.00 Bohr mag/cell
     absolute magnetization    =     0.00 Bohr mag/cell

     iteration # 11     ecut=    60.00 Ry     beta= 0.40
     Davidson diagonalization with overlap

---- Real-time Memory Report at c_bands before calling an iterative solver
           134 MiB given to the printing process from OS
             0 MiB allocation reported by mallinfo(arena+hblkhd)
          2516 MiB available memory on the node where the printing process lives
------------------
     ethr =  1.03E-08,  avg # of iterations =  5.3

     total cpu time spent up to now is       67.8 secs

     total energy              =     -17.04864723 Ry
     estimated scf accuracy    <       0.00005943 Ry

     total magnetization       =     0.00 Bohr mag/cell
     absolute magnetization    =     0.00 Bohr mag/cell

     iteration # 12     ecut=    60.00 Ry     beta= 0.40
     Davidson diagonalization with overlap

---- Real-time Memory Report at c_bands before calling an iterative solver
           134 MiB given to the printing process from OS
             0 MiB allocation reported by mallinfo(arena+hblkhd)
          2513 MiB available memory on the node where the printing process lives
------------------
     ethr =  1.03E-08,  avg # of iterations =  4.6

     total cpu time spent up to now is       74.7 secs

     total energy              =     -17.04865357 Ry
     estimated scf accuracy    <       0.00000012 Ry

     total magnetization       =    -0.00 Bohr mag/cell
     absolute magnetization    =     0.00 Bohr mag/cell

     iteration # 13     ecut=    60.00 Ry     beta= 0.40
     Davidson diagonalization with overlap

---- Real-time Memory Report at c_bands before calling an iterative solver
           134 MiB given to the printing process from OS
             0 MiB allocation reported by mallinfo(arena+hblkhd)
          2516 MiB available memory on the node where the printing process lives
------------------
     ethr =  1.49E-09,  avg # of iterations =  2.7

     total cpu time spent up to now is       79.1 secs

     total energy              =     -17.04865361 Ry
     estimated scf accuracy    <       0.00000013 Ry

     total magnetization       =    -0.00 Bohr mag/cell
     absolute magnetization    =     0.00 Bohr mag/cell

     iteration # 14     ecut=    60.00 Ry     beta= 0.40
     Davidson diagonalization with overlap

---- Real-time Memory Report at c_bands before calling an iterative solver
           134 MiB given to the printing process from OS
             0 MiB allocation reported by mallinfo(arena+hblkhd)
          2516 MiB available memory on the node where the printing process lives
------------------
     ethr =  1.49E-09,  avg # of iterations =  1.0

     total cpu time spent up to now is       82.9 secs

     total energy              =     -17.04865352 Ry
     estimated scf accuracy    <       0.00000019 Ry

     total magnetization       =    -0.00 Bohr mag/cell
     absolute magnetization    =     0.00 Bohr mag/cell

     iteration # 15     ecut=    60.00 Ry     beta= 0.40
     Davidson diagonalization with overlap

---- Real-time Memory Report at c_bands before calling an iterative solver
           134 MiB given to the printing process from OS
             0 MiB allocation reported by mallinfo(arena+hblkhd)
          2516 MiB available memory on the node where the printing process lives
------------------
     ethr =  1.49E-09,  avg # of iterations =  2.0

     Magnetic moment per site  (integrated on atomic sphere of radius R)
     atom   1 (R=0.253)  charge=  1.8397  magn=  0.0000
     atom   2 (R=0.253)  charge=  1.8402  magn= -0.0000

     total cpu time spent up to now is       88.0 secs

     End of self-consistent calculation

 ------ SPIN UP ------------


          k = 0.0000 0.0000 0.0000 (  2109 PWs)   bands (ev):

    -5.9197   6.0418   6.0418   6.0418

     occupation numbers 
     1.0000   1.0000   1.0000   1.0000

          k =-0.1179 0.1179 0.1179 (  2112 PWs)   bands (ev):

    -5.5587   3.6418   5.5913   5.5913

     occupation numbers 
     1.0000   1.0000   1.0000   1.0000

          k =-0.2357 0.2357 0.2357 (  2114 PWs)   bands (ev):

    -4.5430   0.6875   5.0432   5.0432

     occupation numbers 
     1.0000   1.0000   1.0000   1.0000

          k = 0.3536-0.3536-0.3536 (  2120 PWs)   bands (ev):

    -3.5849  -0.9507   4.8462   4.8462

     occupation numbers 
     1.0000   1.0000   1.0000   1.0000

          k = 0.2357-0.2357-0.2357 (  2114 PWs)   bands (ev):

    -4.5430   0.6875   5.0432   5.0432

     occupation numbers 
     1.0000   1.0000   1.0000   1.0000

          k = 0.1179-0.1179-0.1179 (  2112 PWs)   bands (ev):

    -5.5587   3.6418   5.5913   5.5913

     occupation numbers 
     1.0000   1.0000   1.0000   1.0000

          k = 0.1179-0.1179 0.1179 (  2112 PWs)   bands (ev):

    -5.5587   3.6418   5.5913   5.5913

     occupation numbers 
     1.0000   1.0000   1.0000   1.0000

          k = 0.0000 0.0000 0.2357 (  2105 PWs)   bands (ev):

    -5.4360   3.9803   4.8472   4.8472

     occupation numbers 
     1.0000   1.0000   1.0000   1.0000

          k =-0.1179 0.1179 0.3536 (  2106 PWs)   bands (ev):

    -4.6210   1.5882   4.0338   4.2954

     occupation numbers 
     1.0000   1.0000   1.0000   1.0000

          k = 0.4714-0.4714-0.2357 (  2120 PWs)   bands (ev):

    -3.4274  -0.5821   3.2463   4.2666

     occupation numbers 
     1.0000   1.0000   1.0000   1.0000

          k = 0.3536-0.3536-0.1179 (  2122 PWs)   bands (ev):

    -3.8135   0.0182   2.9751   4.7466

     occupation numbers 
     1.0000   1.0000   1.0000   1.0000

          k = 0.2357-0.2357 0.0000 (  2109 PWs)   bands (ev):

    -4.9707   2.3070   3.6126   5.4790

     occupation numbers 
     1.0000   1.0000   1.0000   1.0000

          k = 0.2357-0.2357 0.2357 (  2114 PWs)   bands (ev):

    -4.5430   0.6875   5.0432   5.0432

     occupation numbers 
     1.0000   1.0000   1.0000   1.0000

          k = 0.1179-0.1179 0.3536 (  2106 PWs)   bands (ev):

    -4.6210   1.5882   4.0338   4.2954

     occupation numbers 
     1.0000   1.0000   1.0000   1.0000

          k = 0.0000 0.0000 0.4714 (  2108 PWs)   bands (ev):

    -4.0171   1.0175   3.6239   3.6239

     occupation numbers 
     1.0000   1.0000   1.0000   1.0000

          k = 0.5893-0.5893-0.1179 (  2126 PWs)   bands (ev):

    -2.8536  -0.5316   2.3905   3.4880

     occupation numbers 
     1.0000   1.0000   1.0000   1.0000

          k = 0.4714-0.4714-0.0000 (  2121 PWs)   bands (ev):

    -2.6550  -0.7376   1.6012   3.9309

     occupation numbers 
     1.0000   1.0000   1.0000   1.0000

          k = 0.3536-0.3536 0.1179 (  2122 PWs)   bands (ev):

    -3.8135   0.0182   2.9751   4.7466

     occupation numbers 
     1.0000   1.0000   1.0000   1.0000

          k =-0.3536 0.3536-0.3536 (  2120 PWs)   bands (ev):

    -3.5849  -0.9507   4.8462   4.8462

     occupation numbers 
     1.0000   1.0000   1.0000   1.0000

          k =-0.4714 0.4714-0.2357 (  2120 PWs)   bands (ev):

    -3.4274  -0.5821   3.2463   4.2666

     occupation numbers 
     1.0000   1.0000   1.0000   1.0000

          k =-0.5893 0.5893-0.1179 (  2126 PWs)   bands (ev):

    -2.8536  -0.5316   2.3905   3.4880

     occupation numbers 
     1.0000   1.0000   1.0000   1.0000

          k = 0.0000 0.0000-0.7071 (  2100 PWs)   bands (ev):

    -1.7803  -1.7803   3.1899   3.1899

     occupation numbers 
     1.0000   1.0000   1.0000   1.0000

          k =-0.1179 0.1179-0.5893 (  2126 PWs)   bands (ev):

    -2.8536  -0.5316   2.3905   3.4880

     occupation numbers 
     1.0000   1.0000   1.0000   1.0000

          k =-0.2357 0.2357-0.4714 (  2120 PWs)   bands (ev):

    -3.4274  -0.5821   3.2463   4.2666

     occupation numbers 
     1.0000   1.0000   1.0000   1.0000

          k =-0.2357 0.2357-0.2357 (  2114 PWs)   bands (ev):

    -4.5430   0.6875   5.0432   5.0432

     occupation numbers 
     1.0000   1.0000   1.0000   1.0000

          k =-0.3536 0.3536-0.1179 (  2122 PWs)   bands (ev):

    -3.8135   0.0182   2.9751   4.7466

     occupation numbers 
     1.0000   1.0000   1.0000   1.0000

          k =-0.4714 0.4714-0.0000 (  2121 PWs)   bands (ev):

    -2.6550  -0.7376   1.6012   3.9309

     occupation numbers 
     1.0000   1.0000   1.0000   1.0000

          k = 0.1179-0.1179-0.5893 (  2126 PWs)   bands (ev):

    -2.8536  -0.5316   2.3905   3.4880

     occupation numbers 
     1.0000   1.0000   1.0000   1.0000

          k = 0.0000 0.0000-0.4714 (  2108 PWs)   bands (ev):

    -4.0171   1.0175   3.6239   3.6239

     occupation numbers 
     1.0000   1.0000   1.0000   1.0000

          k =-0.1179 0.1179-0.3536 (  2106 PWs)   bands (ev):

    -4.6210   1.5882   4.0338   4.2954

     occupation numbers 
     1.0000   1.0000   1.0000   1.0000

          k =-0.1179 0.1179-0.1179 (  2112 PWs)   bands (ev):

    -5.5587   3.6418   5.5913   5.5913

     occupation numbers 
     1.0000   1.0000   1.0000   1.0000

          k =-0.2357 0.2357 0.0000 (  2109 PWs)   bands (ev):

    -4.9707   2.3070   3.6126   5.4790

     occupation numbers 
     1.0000   1.0000   1.0000   1.0000

          k =-0.3536 0.3536 0.1179 (  2122 PWs)   bands (ev):

    -3.8135   0.0182   2.9751   4.7466

     occupation numbers 
     1.0000   1.0000   1.0000   1.0000

          k = 0.2357-0.2357-0.4714 (  2120 PWs)   bands (ev):

    -3.4274  -0.5821   3.2463   4.2666

     occupation numbers 
     1.0000   1.0000   1.0000   1.0000

          k = 0.1179-0.1179-0.3536 (  2106 PWs)   bands (ev):

    -4.6210   1.5882   4.0338   4.2954

     occupation numbers 
     1.0000   1.0000   1.0000   1.0000

          k = 0.0000 0.0000-0.2357 (  2105 PWs)   bands (ev):

    -5.4360   3.9803   4.8472   4.8472

     occupation numbers 
     1.0000   1.0000   1.0000   1.0000

          k = 0.1179 0.1179-0.1179 (  2112 PWs)   bands (ev):

    -5.5587   3.6418   5.5913   5.5913

     occupation numbers 
     1.0000   1.0000   1.0000   1.0000

          k = 0.0000 0.2357 0.0000 (  2105 PWs)   bands (ev):

    -5.4360   3.9803   4.8472   4.8472

     occupation numbers 
     1.0000   1.0000   1.0000   1.0000

          k =-0.1179 0.3536 0.1179 (  2106 PWs)   bands (ev):

    -4.6210   1.5882   4.0338   4.2954

     occupation numbers 
     1.0000   1.0000   1.0000   1.0000

          k = 0.4714-0.2357-0.4714 (  2120 PWs)   bands (ev):

    -3.4274  -0.5821   3.2463   4.2666

     occupation numbers 
     1.0000   1.0000   1.0000   1.0000

          k = 0.3536-0.1179-0.3536 (  2122 PWs)   bands (ev):

    -3.8135   0.0182   2.9751   4.7466

     occupation numbers 
     1.0000   1.0000   1.0000   1.0000

          k = 0.2357 0.0000-0.2357 (  2109 PWs)   bands (ev):

    -4.9707   2.3070   3.6126   5.4790

     occupation numbers 
     1.0000   1.0000   1.0000   1.0000

          k = 0.2357 0.0000 0.0000 (  2105 PWs)   bands (ev):

    -5.4360   3.9803   4.8472   4.8472

     occupation numbers 
     1.0000   1.0000   1.0000   1.0000

          k = 0.1179 0.1179 0.1179 (  2112 PWs)   bands (ev):

    -5.5587   3.6418   5.5913   5.5913

     occupation numbers 
     1.0000   1.0000   1.0000   1.0000

          k = 0.0000 0.2357 0.2357 (  2109 PWs)   bands (ev):

    -4.9707   2.3070   3.6126   5.4790

     occupation numbers 
     1.0000   1.0000   1.0000   1.0000

          k = 0.5893-0.3536-0.3536 (  2122 PWs)   bands (ev):

    -3.8135   0.0182   2.9751   4.7466

     occupation numbers 
     1.0000   1.0000   1.0000   1.0000

          k = 0.4714-0.2357-0.2357 (  2120 PWs)   bands (ev):

    -3.4274  -0.5821   3.2463   4.2666

     occupation numbers 
     1.0000   1.0000   1.0000   1.0000

          k = 0.3536-0.1179-0.1179 (  2106 PWs)   bands (ev):

    -4.6210   1.5882   4.0338   4.2954

     occupation numbers 
     1.0000   1.0000   1.0000   1.0000

          k = 0.3536-0.1179 0.1179 (  2106 PWs)   bands (ev):

    -4.6210   1.5882   4.0338   4.2954

     occupation numbers 
     1.0000   1.0000   1.0000   1.0000

          k = 0.2357 0.0000 0.2357 (  2109 PWs)   bands (ev):

    -4.9707   2.3070   3.6126   5.4790

     occupation numbers 
     1.0000   1.0000   1.0000   1.0000

          k = 0.1179 0.1179 0.3536 (  2106 PWs)   bands (ev):

    -4.6210   1.5882   4.0338   4.2954

     occupation numbers 
     1.0000   1.0000   1.0000   1.0000

          k = 0.7071-0.4714-0.2357 (  2113 PWs)   bands (ev):

    -3.6312   0.3868   2.4512   3.7381

     occupation numbers 
     1.0000   1.0000   1.0000   1.0000

          k = 0.5893-0.3536-0.1179 (  2122 PWs)   bands (ev):

    -2.6447  -0.8122   2.0081   3.2681

     occupation numbers 
     1.0000   1.0000   1.0000   1.0000

          k = 0.4714-0.2357 0.0000 (  2113 PWs)   bands (ev):

    -3.6312   0.3868   2.4512   3.7381

     occupation numbers 
     1.0000   1.0000   1.0000   1.0000

          k =-0.2357 0.4714-0.4714 (  2120 PWs)   bands (ev):

    -3.4274  -0.5821   3.2463   4.2666

     occupation numbers 
     1.0000   1.0000   1.0000   1.0000

          k =-0.3536 0.5893-0.3536 (  2122 PWs)   bands (ev):

    -3.8135   0.0182   2.9751   4.7466

     occupation numbers 
     1.0000   1.0000   1.0000   1.0000

          k =-0.4714 0.7071-0.2357 (  2113 PWs)   bands (ev):

    -3.6312   0.3868   2.4512   3.7381

     occupation numbers 
     1.0000   1.0000   1.0000   1.0000

          k = 0.1179 0.1179-0.8250 (  2126 PWs)   bands (ev):

    -2.8536  -0.5316   2.3905   3.4880

     occupation numbers 
     1.0000   1.0000   1.0000   1.0000

          k = 0.0000 0.2357-0.7071 (  2138 PWs)   bands (ev):

    -1.6586  -1.6586   2.3778   2.3778

     occupation numbers 
     1.0000   1.0000   1.0000   1.0000

          k =-0.1179 0.3536-0.5893 (  2122 PWs)   bands (ev):

    -2.6447  -0.8122   2.0081   3.2681

     occupation numbers 
     1.0000   1.0000   1.0000   1.0000

          k =-0.1179 0.3536-0.3536 (  2122 PWs)   bands (ev):

    -3.8135   0.0182   2.9751   4.7466

     occupation numbers 
     1.0000   1.0000   1.0000   1.0000

          k =-0.2357 0.4714-0.2357 (  2120 PWs)   bands (ev):

    -3.4274  -0.5821   3.2463   4.2666

     occupation numbers 
     1.0000   1.0000   1.0000   1.0000

          k =-0.3536 0.5893-0.1179 (  2122 PWs)   bands (ev):

    -2.6447  -0.8122   2.0081   3.2681

     occupation numbers 
     1.0000   1.0000   1.0000   1.0000

          k = 0.2357 0.0000-0.7071 (  2138 PWs)   bands (ev):

    -1.6586  -1.6586   2.3778   2.3778

     occupation numbers 
     1.0000   1.0000   1.0000   1.0000

          k = 0.1179 0.1179-0.5893 (  2126 PWs)   bands (ev):

    -2.8536  -0.5316   2.3905   3.4880

     occupation numbers 
     1.0000   1.0000   1.0000   1.0000

          k =-0.0000 0.2357-0.4714 (  2113 PWs)   bands (ev):

    -3.6312   0.3868   2.4512   3.7381

     occupation numbers 
     1.0000   1.0000   1.0000   1.0000

          k = 0.0000 0.2357-0.2357 (  2109 PWs)   bands (ev):

    -4.9707   2.3070   3.6126   5.4790

     occupation numbers 
     1.0000   1.0000   1.0000   1.0000

          k =-0.1179 0.3536-0.1179 (  2106 PWs)   bands (ev):

    -4.6210   1.5882   4.0338   4.2954

     occupation numbers 
     1.0000   1.0000   1.0000   1.0000

          k =-0.2357 0.4714 0.0000 (  2113 PWs)   bands (ev):

    -3.6312   0.3868   2.4512   3.7381

     occupation numbers 
     1.0000   1.0000   1.0000   1.0000

          k = 0.3536-0.1179-0.5893 (  2122 PWs)   bands (ev):

    -2.6447  -0.8122   2.0081   3.2681

     occupation numbers 
     1.0000   1.0000   1.0000   1.0000

          k = 0.2357-0.0000-0.4714 (  2113 PWs)   bands (ev):

    -3.6312   0.3868   2.4512   3.7381

     occupation numbers 
     1.0000   1.0000   1.0000   1.0000

          k = 0.1179 0.1179-0.3536 (  2106 PWs)   bands (ev):

    -4.6210   1.5882   4.0338   4.2954

     occupation numbers 
     1.0000   1.0000   1.0000   1.0000

          k = 0.2357 0.2357-0.2357 (  2114 PWs)   bands (ev):

    -4.5430   0.6875   5.0432   5.0432

     occupation numbers 
     1.0000   1.0000   1.0000   1.0000

          k = 0.1179 0.3536-0.1179 (  2106 PWs)   bands (ev):

    -4.6210   1.5882   4.0338   4.2954

     occupation numbers 
     1.0000   1.0000   1.0000   1.0000

          k = 0.0000 0.4714 0.0000 (  2108 PWs)   bands (ev):

    -4.0171   1.0175   3.6239   3.6239

     occupation numbers 
     1.0000   1.0000   1.0000   1.0000

          k = 0.5893-0.1179-0.5893 (  2126 PWs)   bands (ev):

    -2.8536  -0.5316   2.3905   3.4880

     occupation numbers 
     1.0000   1.0000   1.0000   1.0000

          k = 0.4714-0.0000-0.4714 (  2121 PWs)   bands (ev):

    -2.6550  -0.7376   1.6012   3.9309

     occupation numbers 
     1.0000   1.0000   1.0000   1.0000

          k = 0.3536 0.1179-0.3536 (  2122 PWs)   bands (ev):

    -3.8135   0.0182   2.9751   4.7466

     occupation numbers 
     1.0000   1.0000   1.0000   1.0000

          k = 0.3536 0.1179-0.1179 (  2106 PWs)   bands (ev):

    -4.6210   1.5882   4.0338   4.2954

     occupation numbers 
     1.0000   1.0000   1.0000   1.0000

          k = 0.2357 0.2357 0.0000 (  2109 PWs)   bands (ev):

    -4.9707   2.3070   3.6126   5.4790

     occupation numbers 
     1.0000   1.0000   1.0000   1.0000

          k = 0.1179 0.3536 0.1179 (  2106 PWs)   bands (ev):

    -4.6210   1.5882   4.0338   4.2954

     occupation numbers 
     1.0000   1.0000   1.0000   1.0000

          k = 0.7071-0.2357-0.4714 (  2113 PWs)   bands (ev):

    -3.6312   0.3868   2.4512   3.7381

     occupation numbers 
     1.0000   1.0000   1.0000   1.0000

          k = 0.5893-0.1179-0.3536 (  2122 PWs)   bands (ev):

    -2.6447  -0.8122   2.0081   3.2681

     occupation numbers 
     1.0000   1.0000   1.0000   1.0000

          k = 0.4714 0.0000-0.2357 (  2113 PWs)   bands (ev):

    -3.6312   0.3868   2.4512   3.7381

     occupation numbers 
     1.0000   1.0000   1.0000   1.0000

          k = 0.4714 0.0000 0.0000 (  2108 PWs)   bands (ev):

    -4.0171   1.0175   3.6239   3.6239

     occupation numbers 
     1.0000   1.0000   1.0000   1.0000

          k = 0.3536 0.1179 0.1179 (  2106 PWs)   bands (ev):

    -4.6210   1.5882   4.0338   4.2954

     occupation numbers 
     1.0000   1.0000   1.0000   1.0000

          k = 0.2357 0.2357 0.2357 (  2114 PWs)   bands (ev):

    -4.5430   0.6875   5.0432   5.0432

     occupation numbers 
     1.0000   1.0000   1.0000   1.0000

          k = 0.8250-0.3536-0.3536 (  2122 PWs)   bands (ev):

    -3.8135   0.0182   2.9751   4.7466

     occupation numbers 
     1.0000   1.0000   1.0000   1.0000

          k = 0.7071-0.2357-0.2357 (  2121 PWs)   bands (ev):

    -2.6550  -0.7376   1.6012   3.9309

     occupation numbers 
     1.0000   1.0000   1.0000   1.0000

          k = 0.5893-0.1179-0.1179 (  2126 PWs)   bands (ev):

    -2.8536  -0.5316   2.3905   3.4880

     occupation numbers 
     1.0000   1.0000   1.0000   1.0000

          k =-0.1179 0.5893-0.5893 (  2126 PWs)   bands (ev):

    -2.8536  -0.5316   2.3905   3.4880

     occupation numbers 
     1.0000   1.0000   1.0000   1.0000

          k =-0.2357 0.7071-0.4714 (  2113 PWs)   bands (ev):

    -3.6312   0.3868   2.4512   3.7381

     occupation numbers 
     1.0000   1.0000   1.0000   1.0000

          k =-0.3536 0.8250-0.3536 (  2122 PWs)   bands (ev):

    -3.8135   0.0182   2.9751   4.7466

     occupation numbers 
     1.0000   1.0000   1.0000   1.0000

          k = 0.2357 0.2357-0.9428 (  2120 PWs)   bands (ev):

    -3.4274  -0.5821   3.2463   4.2666

     occupation numbers 
     1.0000   1.0000   1.0000   1.0000

          k = 0.1179 0.3536-0.8250 (  2122 PWs)   bands (ev):

    -2.6447  -0.8122   2.0081   3.2681

     occupation numbers 
     1.0000   1.0000   1.0000   1.0000

          k =-0.0000 0.4714-0.7071 (  2138 PWs)   bands (ev):

    -1.6586  -1.6586   2.3778   2.3778

     occupation numbers 
     1.0000   1.0000   1.0000   1.0000

          k =-0.0000 0.4714-0.4714 (  2121 PWs)   bands (ev):

    -2.6550  -0.7376   1.6012   3.9309

     occupation numbers 
     1.0000   1.0000   1.0000   1.0000

          k =-0.1179 0.5893-0.3536 (  2122 PWs)   bands (ev):

    -2.6447  -0.8122   2.0081   3.2681

     occupation numbers 
     1.0000   1.0000   1.0000   1.0000

          k =-0.2357 0.7071-0.2357 (  2121 PWs)   bands (ev):

    -2.6550  -0.7376   1.6012   3.9309

     occupation numbers 
     1.0000   1.0000   1.0000   1.0000

          k = 0.3536 0.1179-0.8250 (  2122 PWs)   bands (ev):

    -2.6447  -0.8122   2.0081   3.2681

     occupation numbers 
     1.0000   1.0000   1.0000   1.0000

          k = 0.2357 0.2357-0.7071 (  2121 PWs)   bands (ev):

    -2.6550  -0.7376   1.6012   3.9309

     occupation numbers 
     1.0000   1.0000   1.0000   1.0000

          k = 0.1179 0.3536-0.5893 (  2122 PWs)   bands (ev):

    -2.6447  -0.8122   2.0081   3.2681

     occupation numbers 
     1.0000   1.0000   1.0000   1.0000

          k = 0.1179 0.3536-0.3536 (  2122 PWs)   bands (ev):

    -3.8135   0.0182   2.9751   4.7466

     occupation numbers 
     1.0000   1.0000   1.0000   1.0000

          k = 0.0000 0.4714-0.2357 (  2113 PWs)   bands (ev):

    -3.6312   0.3868   2.4512   3.7381

     occupation numbers 
     1.0000   1.0000   1.0000   1.0000

          k =-0.1179 0.5893-0.1179 (  2126 PWs)   bands (ev):

    -2.8536  -0.5316   2.3905   3.4880

     occupation numbers 
     1.0000   1.0000   1.0000   1.0000

          k = 0.4714-0.0000-0.7071 (  2138 PWs)   bands (ev):

    -1.6586  -1.6586   2.3778   2.3778

     occupation numbers 
     1.0000   1.0000   1.0000   1.0000

          k = 0.3536 0.1179-0.5893 (  2122 PWs)   bands (ev):

    -2.6447  -0.8122   2.0081   3.2681

     occupation numbers 
     1.0000   1.0000   1.0000   1.0000

          k = 0.2357 0.2357-0.4714 (  2120 PWs)   bands (ev):

    -3.4274  -0.5821   3.2463   4.2666

     occupation numbers 
     1.0000   1.0000   1.0000   1.0000

          k =-0.3536-0.3536 0.3536 (  2120 PWs)   bands (ev):

    -3.5849  -0.9507   4.8462   4.8462

     occupation numbers 
     1.0000   1.0000   1.0000   1.0000

          k =-0.4714-0.2357 0.4714 (  2120 PWs)   bands (ev):

    -3.4274  -0.5821   3.2463   4.2666

     occupation numbers 
     1.0000   1.0000   1.0000   1.0000

          k =-0.5893-0.1179 0.5893 (  2126 PWs)   bands (ev):

    -2.8536  -0.5316   2.3905   3.4880

     occupation numbers 
     1.0000   1.0000   1.0000   1.0000

          k = 0.0000-0.7071 0.0000 (  2100 PWs)   bands (ev):

    -1.7803  -1.7803   3.1899   3.1899

     occupation numbers 
     1.0000   1.0000   1.0000   1.0000

          k =-0.1179-0.5893 0.1179 (  2126 PWs)   bands (ev):

    -2.8536  -0.5316   2.3905   3.4880

     occupation numbers 
     1.0000   1.0000   1.0000   1.0000

          k =-0.2357-0.4714 0.2357 (  2120 PWs)   bands (ev):

    -3.4274  -0.5821   3.2463   4.2666

     occupation numbers 
     1.0000   1.0000   1.0000   1.0000

          k =-0.2357-0.4714 0.4714 (  2120 PWs)   bands (ev):

    -3.4274  -0.5821   3.2463   4.2666

     occupation numbers 
     1.0000   1.0000   1.0000   1.0000

          k =-0.3536-0.3536 0.5893 (  2122 PWs)   bands (ev):

    -3.8135   0.0182   2.9751   4.7466

     occupation numbers 
     1.0000   1.0000   1.0000   1.0000

          k =-0.4714-0.2357 0.7071 (  2113 PWs)   bands (ev):

    -3.6312   0.3868   2.4512   3.7381

     occupation numbers 
     1.0000   1.0000   1.0000   1.0000

          k = 0.1179-0.8250 0.1179 (  2126 PWs)   bands (ev):

    -2.8536  -0.5316   2.3905   3.4880

     occupation numbers 
     1.0000   1.0000   1.0000   1.0000

          k = 0.0000-0.7071 0.2357 (  2138 PWs)   bands (ev):

    -1.6586  -1.6586   2.3778   2.3778

     occupation numbers 
     1.0000   1.0000   1.0000   1.0000

          k =-0.1179-0.5893 0.3536 (  2122 PWs)   bands (ev):

    -2.6447  -0.8122   2.0081   3.2681

     occupation numbers 
     1.0000   1.0000   1.0000   1.0000

          k =-0.1179-0.5893 0.5893 (  2126 PWs)   bands (ev):

    -2.8536  -0.5316   2.3905   3.4880

     occupation numbers 
     1.0000   1.0000   1.0000   1.0000

          k =-0.2357-0.4714 0.7071 (  2113 PWs)   bands (ev):

    -3.6312   0.3868   2.4512   3.7381

     occupation numbers 
     1.0000   1.0000   1.0000   1.0000

          k =-0.3536-0.3536 0.8250 (  2122 PWs)   bands (ev):

    -3.8135   0.0182   2.9751   4.7466

     occupation numbers 
     1.0000   1.0000   1.0000   1.0000

          k = 0.2357-0.9428 0.2357 (  2120 PWs)   bands (ev):

    -3.4274  -0.5821   3.2463   4.2666

     occupation numbers 
     1.0000   1.0000   1.0000   1.0000

          k = 0.1179-0.8250 0.3536 (  2122 PWs)   bands (ev):

    -2.6447  -0.8122   2.0081   3.2681

     occupation numbers 
     1.0000   1.0000   1.0000   1.0000

          k =-0.0000-0.7071 0.4714 (  2138 PWs)   bands (ev):

    -1.6586  -1.6586   2.3778   2.3778

     occupation numbers 
     1.0000   1.0000   1.0000   1.0000

          k =-0.7071 0.0000 0.0000 (  2100 PWs)   bands (ev):

    -1.7803  -1.7803   3.1899   3.1899

     occupation numbers 
     1.0000   1.0000   1.0000   1.0000

          k =-0.8250 0.1179 0.1179 (  2126 PWs)   bands (ev):

    -2.8536  -0.5316   2.3905   3.4880

     occupation numbers 
     1.0000   1.0000   1.0000   1.0000

          k =-0.9428 0.2357 0.2357 (  2120 PWs)   bands (ev):

    -3.4274  -0.5821   3.2463   4.2666

     occupation numbers 
     1.0000   1.0000   1.0000   1.0000

          k =-0.3536-0.3536-0.3536 (  2120 PWs)   bands (ev):

    -3.5849  -0.9507   4.8462   4.8462

     occupation numbers 
     1.0000   1.0000   1.0000   1.0000

          k =-0.4714-0.2357-0.2357 (  2120 PWs)   bands (ev):

    -3.4274  -0.5821   3.2463   4.2666

     occupation numbers 
     1.0000   1.0000   1.0000   1.0000

          k =-0.5893-0.1179-0.1179 (  2126 PWs)   bands (ev):

    -2.8536  -0.5316   2.3905   3.4880

     occupation numbers 
     1.0000   1.0000   1.0000   1.0000

          k =-0.5893-0.1179 0.1179 (  2126 PWs)   bands (ev):

    -2.8536  -0.5316   2.3905   3.4880

     occupation numbers 
     1.0000   1.0000   1.0000   1.0000

          k =-0.7071 0.0000 0.2357 (  2138 PWs)   bands (ev):

    -1.6586  -1.6586   2.3778   2.3778

     occupation numbers 
     1.0000   1.0000   1.0000   1.0000

          k =-0.8250 0.1179 0.3536 (  2122 PWs)   bands (ev):

    -2.6447  -0.8122   2.0081   3.2681

     occupation numbers 
     1.0000   1.0000   1.0000   1.0000

          k =-0.2357-0.4714-0.2357 (  2120 PWs)   bands (ev):

    -3.4274  -0.5821   3.2463   4.2666

     occupation numbers 
     1.0000   1.0000   1.0000   1.0000

          k =-0.3536-0.3536-0.1179 (  2122 PWs)   bands (ev):

    -3.8135   0.0182   2.9751   4.7466

     occupation numbers 
     1.0000   1.0000   1.0000   1.0000

          k =-0.4714-0.2357-0.0000 (  2113 PWs)   bands (ev):

    -3.6312   0.3868   2.4512   3.7381

     occupation numbers 
     1.0000   1.0000   1.0000   1.0000

          k =-0.4714-0.2357 0.2357 (  2120 PWs)   bands (ev):

    -3.4274  -0.5821   3.2463   4.2666

     occupation numbers 
     1.0000   1.0000   1.0000   1.0000

          k =-0.5893-0.1179 0.3536 (  2122 PWs)   bands (ev):

    -2.6447  -0.8122   2.0081   3.2681

     occupation numbers 
     1.0000   1.0000   1.0000   1.0000

          k =-0.7071-0.0000 0.4714 (  2138 PWs)   bands (ev):

    -1.6586  -1.6586   2.3778   2.3778

     occupation numbers 
     1.0000   1.0000   1.0000   1.0000

          k =-0.1179-0.5893-0.1179 (  2126 PWs)   bands (ev):

    -2.8536  -0.5316   2.3905   3.4880

     occupation numbers 
     1.0000   1.0000   1.0000   1.0000

          k =-0.2357-0.4714 0.0000 (  2113 PWs)   bands (ev):

    -3.6312   0.3868   2.4512   3.7381

     occupation numbers 
     1.0000   1.0000   1.0000   1.0000

          k =-0.3536-0.3536 0.1179 (  2122 PWs)   bands (ev):

    -3.8135   0.0182   2.9751   4.7466

     occupation numbers 
     1.0000   1.0000   1.0000   1.0000

          k =-0.2357-0.2357 0.2357 (  2114 PWs)   bands (ev):

    -4.5430   0.6875   5.0432   5.0432

     occupation numbers 
     1.0000   1.0000   1.0000   1.0000

          k =-0.3536-0.1179 0.3536 (  2122 PWs)   bands (ev):

    -3.8135   0.0182   2.9751   4.7466

     occupation numbers 
     1.0000   1.0000   1.0000   1.0000

          k =-0.4714-0.0000 0.4714 (  2121 PWs)   bands (ev):

    -2.6550  -0.7376   1.6012   3.9309

     occupation numbers 
     1.0000   1.0000   1.0000   1.0000

          k = 0.1179-0.5893-0.1179 (  2126 PWs)   bands (ev):

    -2.8536  -0.5316   2.3905   3.4880

     occupation numbers 
     1.0000   1.0000   1.0000   1.0000

          k = 0.0000-0.4714 0.0000 (  2108 PWs)   bands (ev):

    -4.0171   1.0175   3.6239   3.6239

     occupation numbers 
     1.0000   1.0000   1.0000   1.0000

          k =-0.1179-0.3536 0.1179 (  2106 PWs)   bands (ev):

    -4.6210   1.5882   4.0338   4.2954

     occupation numbers 
     1.0000   1.0000   1.0000   1.0000

          k =-0.1179-0.3536 0.3536 (  2122 PWs)   bands (ev):

    -3.8135   0.0182   2.9751   4.7466

     occupation numbers 
     1.0000   1.0000   1.0000   1.0000

          k =-0.2357-0.2357 0.4714 (  2120 PWs)   bands (ev):

    -3.4274  -0.5821   3.2463   4.2666

     occupation numbers 
     1.0000   1.0000   1.0000   1.0000

          k =-0.3536-0.1179 0.5893 (  2122 PWs)   bands (ev):

    -2.6447  -0.8122   2.0081   3.2681

     occupation numbers 
     1.0000   1.0000   1.0000   1.0000

          k = 0.2357-0.7071 0.0000 (  2138 PWs)   bands (ev):

    -1.6586  -1.6586   2.3778   2.3778

     occupation numbers 
     1.0000   1.0000   1.0000   1.0000

          k = 0.1179-0.5893 0.1179 (  2126 PWs)   bands (ev):

    -2.8536  -0.5316   2.3905   3.4880

     occupation numbers 
     1.0000   1.0000   1.0000   1.0000

          k =-0.0000-0.4714 0.2357 (  2113 PWs)   bands (ev):

    -3.6312   0.3868   2.4512   3.7381

     occupation numbers 
     1.0000   1.0000   1.0000   1.0000

          k =-0.0000-0.4714 0.4714 (  2121 PWs)   bands (ev):

    -2.6550  -0.7376   1.6012   3.9309

     occupation numbers 
     1.0000   1.0000   1.0000   1.0000

          k =-0.1179-0.3536 0.5893 (  2122 PWs)   bands (ev):

    -2.6447  -0.8122   2.0081   3.2681

     occupation numbers 
     1.0000   1.0000   1.0000   1.0000

          k =-0.2357-0.2357 0.7071 (  2121 PWs)   bands (ev):

    -2.6550  -0.7376   1.6012   3.9309

     occupation numbers 
     1.0000   1.0000   1.0000   1.0000

          k = 0.3536-0.8250 0.1179 (  2122 PWs)   bands (ev):

    -2.6447  -0.8122   2.0081   3.2681

     occupation numbers 
     1.0000   1.0000   1.0000   1.0000

          k = 0.2357-0.7071 0.2357 (  2121 PWs)   bands (ev):

    -2.6550  -0.7376   1.6012   3.9309

     occupation numbers 
     1.0000   1.0000   1.0000   1.0000

          k = 0.1179-0.5893 0.3536 (  2122 PWs)   bands (ev):

    -2.6447  -0.8122   2.0081   3.2681

     occupation numbers 
     1.0000   1.0000   1.0000   1.0000

          k =-0.5893 0.1179-0.1179 (  2126 PWs)   bands (ev):

    -2.8536  -0.5316   2.3905   3.4880

     occupation numbers 
     1.0000   1.0000   1.0000   1.0000

          k =-0.7071 0.2357 0.0000 (  2138 PWs)   bands (ev):

    -1.6586  -1.6586   2.3778   2.3778

     occupation numbers 
     1.0000   1.0000   1.0000   1.0000

          k =-0.8250 0.3536 0.1179 (  2122 PWs)   bands (ev):

    -2.6447  -0.8122   2.0081   3.2681

     occupation numbers 
     1.0000   1.0000   1.0000   1.0000

          k =-0.2357-0.2357-0.4714 (  2120 PWs)   bands (ev):

    -3.4274  -0.5821   3.2463   4.2666

     occupation numbers 
     1.0000   1.0000   1.0000   1.0000

          k =-0.3536-0.1179-0.3536 (  2122 PWs)   bands (ev):

    -3.8135   0.0182   2.9751   4.7466

     occupation numbers 
     1.0000   1.0000   1.0000   1.0000

          k =-0.4714-0.0000-0.2357 (  2113 PWs)   bands (ev):

    -3.6312   0.3868   2.4512   3.7381

     occupation numbers 
     1.0000   1.0000   1.0000   1.0000

          k =-0.4714 0.0000 0.0000 (  2108 PWs)   bands (ev):

    -4.0171   1.0175   3.6239   3.6239

     occupation numbers 
     1.0000   1.0000   1.0000   1.0000

          k =-0.5893 0.1179 0.1179 (  2126 PWs)   bands (ev):

    -2.8536  -0.5316   2.3905   3.4880

     occupation numbers 
     1.0000   1.0000   1.0000   1.0000

          k =-0.7071 0.2357 0.2357 (  2121 PWs)   bands (ev):

    -2.6550  -0.7376   1.6012   3.9309

     occupation numbers 
     1.0000   1.0000   1.0000   1.0000

          k =-0.1179-0.3536-0.3536 (  2122 PWs)   bands (ev):

    -3.8135   0.0182   2.9751   4.7466

     occupation numbers 
     1.0000   1.0000   1.0000   1.0000

          k =-0.2357-0.2357-0.2357 (  2114 PWs)   bands (ev):

    -4.5430   0.6875   5.0432   5.0432

     occupation numbers 
     1.0000   1.0000   1.0000   1.0000

          k =-0.3536-0.1179-0.1179 (  2106 PWs)   bands (ev):

    -4.6210   1.5882   4.0338   4.2954

     occupation numbers 
     1.0000   1.0000   1.0000   1.0000

          k =-0.3536-0.1179 0.1179 (  2106 PWs)   bands (ev):

    -4.6210   1.5882   4.0338   4.2954

     occupation numbers 
     1.0000   1.0000   1.0000   1.0000

          k =-0.4714-0.0000 0.2357 (  2113 PWs)   bands (ev):

    -3.6312   0.3868   2.4512   3.7381

     occupation numbers 
     1.0000   1.0000   1.0000   1.0000

          k =-0.5893 0.1179 0.3536 (  2122 PWs)   bands (ev):

[...]

    -4.5430   0.6875   5.0432   5.0432

     occupation numbers 
     1.0000   1.0000   1.0000   1.0000

          k =-0.3536-0.1179 0.3536 (  2122 PWs)   bands (ev):

    -3.8135   0.0182   2.9751   4.7466

     occupation numbers 
     1.0000   1.0000   1.0000   1.0000

          k =-0.4714-0.0000 0.4714 (  2121 PWs)   bands (ev):

    -2.6550  -0.7376   1.6012   3.9309

     occupation numbers 
     1.0000   1.0000   1.0000   1.0000

          k = 0.1179-0.5893-0.1179 (  2126 PWs)   bands (ev):

    -2.8536  -0.5316   2.3905   3.4880

     occupation numbers 
     1.0000   1.0000   1.0000   1.0000

          k = 0.0000-0.4714 0.0000 (  2108 PWs)   bands (ev):

    -4.0171   1.0175   3.6239   3.6239

     occupation numbers 
     1.0000   1.0000   1.0000   1.0000

          k =-0.1179-0.3536 0.1179 (  2106 PWs)   bands (ev):

    -4.6210   1.5882   4.0338   4.2954

     occupation numbers 
     1.0000   1.0000   1.0000   1.0000

          k =-0.1179-0.3536 0.3536 (  2122 PWs)   bands (ev):

    -3.8135   0.0182   2.9751   4.7466

     occupation numbers 
     1.0000   1.0000   1.0000   1.0000

          k =-0.2357-0.2357 0.4714 (  2120 PWs)   bands (ev):

    -3.4274  -0.5821   3.2463   4.2666

     occupation numbers 
     1.0000   1.0000   1.0000   1.0000

          k =-0.3536-0.1179 0.5893 (  2122 PWs)   bands (ev):

    -2.6447  -0.8122   2.0081   3.2681

     occupation numbers 
     1.0000   1.0000   1.0000   1.0000

          k = 0.2357-0.7071 0.0000 (  2138 PWs)   bands (ev):

    -1.6586  -1.6586   2.3778   2.3778

     occupation numbers 
     1.0000   1.0000   1.0000   1.0000

          k = 0.1179-0.5893 0.1179 (  2126 PWs)   bands (ev):

    -2.8536  -0.5316   2.3905   3.4880

     occupation numbers 
     1.0000   1.0000   1.0000   1.0000

          k =-0.0000-0.4714 0.2357 (  2113 PWs)   bands (ev):

    -3.6312   0.3868   2.4512   3.7381

     occupation numbers 
     1.0000   1.0000   1.0000   1.0000

          k =-0.0000-0.4714 0.4714 (  2121 PWs)   bands (ev):

    -2.6550  -0.7376   1.6012   3.9309

     occupation numbers 
     1.0000   1.0000   1.0000   1.0000

          k =-0.1179-0.3536 0.5893 (  2122 PWs)   bands (ev):

    -2.6447  -0.8122   2.0081   3.2681

     occupation numbers 
     1.0000   1.0000   1.0000   1.0000

          k =-0.2357-0.2357 0.7071 (  2121 PWs)   bands (ev):

    -2.6550  -0.7376   1.6012   3.9309

     occupation numbers 
     1.0000   1.0000   1.0000   1.0000

          k = 0.3536-0.8250 0.1179 (  2122 PWs)   bands (ev):

    -2.6447  -0.8122   2.0081   3.2681

     occupation numbers 
     1.0000   1.0000   1.0000   1.0000

          k = 0.2357-0.7071 0.2357 (  2121 PWs)   bands (ev):

    -2.6550  -0.7376   1.6012   3.9309

     occupation numbers 
     1.0000   1.0000   1.0000   1.0000

          k = 0.1179-0.5893 0.3536 (  2122 PWs)   bands (ev):

    -2.6447  -0.8122   2.0081   3.2681

     occupation numbers 
     1.0000   1.0000   1.0000   1.0000

          k =-0.5893 0.1179-0.1179 (  2126 PWs)   bands (ev):

    -2.8536  -0.5316   2.3905   3.4880

     occupation numbers 
     1.0000   1.0000   1.0000   1.0000

          k =-0.7071 0.2357 0.0000 (  2138 PWs)   bands (ev):

    -1.6586  -1.6586   2.3778   2.3778

     occupation numbers 
     1.0000   1.0000   1.0000   1.0000

          k =-0.8250 0.3536 0.1179 (  2122 PWs)   bands (ev):

    -2.6447  -0.8122   2.0081   3.2681

     occupation numbers 
     1.0000   1.0000   1.0000   1.0000

          k =-0.2357-0.2357-0.4714 (  2120 PWs)   bands (ev):

    -3.4274  -0.5821   3.2463   4.2666

     occupation numbers 
     1.0000   1.0000   1.0000   1.0000

          k =-0.3536-0.1179-0.3536 (  2122 PWs)   bands (ev):

    -3.8135   0.0182   2.9751   4.7466

     occupation numbers 
     1.0000   1.0000   1.0000   1.0000

          k =-0.4714-0.0000-0.2357 (  2113 PWs)   bands (ev):

    -3.6312   0.3868   2.4512   3.7381

     occupation numbers 
     1.0000   1.0000   1.0000   1.0000

          k =-0.4714 0.0000 0.0000 (  2108 PWs)   bands (ev):

    -4.0171   1.0175   3.6239   3.6239

     occupation numbers 
     1.0000   1.0000   1.0000   1.0000

          k =-0.5893 0.1179 0.1179 (  2126 PWs)   bands (ev):

    -2.8536  -0.5316   2.3905   3.4880

     occupation numbers 
     1.0000   1.0000   1.0000   1.0000

          k =-0.7071 0.2357 0.2357 (  2121 PWs)   bands (ev):

    -2.6550  -0.7376   1.6012   3.9309

     occupation numbers 
     1.0000   1.0000   1.0000   1.0000

          k =-0.1179-0.3536-0.3536 (  2122 PWs)   bands (ev):

    -3.8135   0.0182   2.9751   4.7466

     occupation numbers 
     1.0000   1.0000   1.0000   1.0000

          k =-0.2357-0.2357-0.2357 (  2114 PWs)   bands (ev):

    -4.5430   0.6875   5.0432   5.0432

     occupation numbers 
     1.0000   1.0000   1.0000   1.0000

          k =-0.3536-0.1179-0.1179 (  2106 PWs)   bands (ev):

    -4.6210   1.5882   4.0338   4.2954

     occupation numbers 
     1.0000   1.0000   1.0000   1.0000

          k =-0.3536-0.1179 0.1179 (  2106 PWs)   bands (ev):

    -4.6210   1.5882   4.0338   4.2954

     occupation numbers 
     1.0000   1.0000   1.0000   1.0000

          k =-0.4714-0.0000 0.2357 (  2113 PWs)   bands (ev):

    -3.6312   0.3868   2.4512   3.7381

     occupation numbers 
     1.0000   1.0000   1.0000   1.0000

          k =-0.5893 0.1179 0.3536 (  2122 PWs)   bands (ev):

    -2.6447  -0.8122   2.0081   3.2681

     occupation numbers 
     1.0000   1.0000   1.0000   1.0000

          k = 0.0000-0.4714-0.2357 (  2113 PWs)   bands (ev):

    -3.6312   0.3868   2.4512   3.7381

     occupation numbers 
     1.0000   1.0000   1.0000   1.0000

          k =-0.1179-0.3536-0.1179 (  2106 PWs)   bands (ev):

    -4.6210   1.5882   4.0338   4.2954

     occupation numbers 
     1.0000   1.0000   1.0000   1.0000

          k =-0.2357-0.2357 0.0000 (  2109 PWs)   bands (ev):

    -4.9707   2.3070   3.6126   5.4790

     occupation numbers 
     1.0000   1.0000   1.0000   1.0000

          k =-0.1179-0.1179 0.1179 (  2112 PWs)   bands (ev):

    -5.5587   3.6418   5.5913   5.5913

     occupation numbers 
     1.0000   1.0000   1.0000   1.0000

          k =-0.2357 0.0000 0.2357 (  2109 PWs)   bands (ev):

    -4.9707   2.3070   3.6126   5.4790

     occupation numbers 
     1.0000   1.0000   1.0000   1.0000

          k =-0.3536 0.1179 0.3536 (  2122 PWs)   bands (ev):

    -3.8135   0.0182   2.9751   4.7466

     occupation numbers 
     1.0000   1.0000   1.0000   1.0000

          k = 0.2357-0.4714-0.2357 (  2120 PWs)   bands (ev):

    -3.4274  -0.5821   3.2463   4.2666

     occupation numbers 
     1.0000   1.0000   1.0000   1.0000

          k = 0.1179-0.3536-0.1179 (  2106 PWs)   bands (ev):

    -4.6210   1.5882   4.0338   4.2954

     occupation numbers 
     1.0000   1.0000   1.0000   1.0000

          k = 0.0000-0.2357 0.0000 (  2105 PWs)   bands (ev):

    -5.4360   3.9803   4.8472   4.8472

     occupation numbers 
     1.0000   1.0000   1.0000   1.0000

          k = 0.0000-0.2357 0.2357 (  2109 PWs)   bands (ev):

    -4.9707   2.3070   3.6126   5.4790

     occupation numbers 
     1.0000   1.0000   1.0000   1.0000

          k =-0.1179-0.1179 0.3536 (  2106 PWs)   bands (ev):

    -4.6210   1.5882   4.0338   4.2954

     occupation numbers 
     1.0000   1.0000   1.0000   1.0000

          k =-0.2357 0.0000 0.4714 (  2113 PWs)   bands (ev):

    -3.6312   0.3868   2.4512   3.7381

     occupation numbers 
     1.0000   1.0000   1.0000   1.0000

          k = 0.3536-0.5893-0.1179 (  2122 PWs)   bands (ev):

    -2.6447  -0.8122   2.0081   3.2681

     occupation numbers 
     1.0000   1.0000   1.0000   1.0000

          k = 0.2357-0.4714-0.0000 (  2113 PWs)   bands (ev):

    -3.6312   0.3868   2.4512   3.7381

     occupation numbers 
     1.0000   1.0000   1.0000   1.0000

          k = 0.1179-0.3536 0.1179 (  2106 PWs)   bands (ev):

    -4.6210   1.5882   4.0338   4.2954

     occupation numbers 
     1.0000   1.0000   1.0000   1.0000

          k = 0.1179-0.3536 0.3536 (  2122 PWs)   bands (ev):

    -3.8135   0.0182   2.9751   4.7466

     occupation numbers 
     1.0000   1.0000   1.0000   1.0000

          k = 0.0000-0.2357 0.4714 (  2113 PWs)   bands (ev):

    -3.6312   0.3868   2.4512   3.7381

     occupation numbers 
     1.0000   1.0000   1.0000   1.0000

          k =-0.1179-0.1179 0.5893 (  2126 PWs)   bands (ev):

    -2.8536  -0.5316   2.3905   3.4880

     occupation numbers 
     1.0000   1.0000   1.0000   1.0000

          k = 0.4714-0.7071-0.0000 (  2138 PWs)   bands (ev):

    -1.6586  -1.6586   2.3778   2.3778

     occupation numbers 
     1.0000   1.0000   1.0000   1.0000

          k = 0.3536-0.5893 0.1179 (  2122 PWs)   bands (ev):

    -2.6447  -0.8122   2.0081   3.2681

     occupation numbers 
     1.0000   1.0000   1.0000   1.0000

          k = 0.2357-0.4714 0.2357 (  2120 PWs)   bands (ev):

    -3.4274  -0.5821   3.2463   4.2666

     occupation numbers 
     1.0000   1.0000   1.0000   1.0000

          k =-0.4714 0.2357-0.2357 (  2120 PWs)   bands (ev):

    -3.4274  -0.5821   3.2463   4.2666

     occupation numbers 
     1.0000   1.0000   1.0000   1.0000

          k =-0.5893 0.3536-0.1179 (  2122 PWs)   bands (ev):

    -2.6447  -0.8122   2.0081   3.2681

     occupation numbers 
     1.0000   1.0000   1.0000   1.0000

          k =-0.7071 0.4714-0.0000 (  2138 PWs)   bands (ev):

    -1.6586  -1.6586   2.3778   2.3778

     occupation numbers 
     1.0000   1.0000   1.0000   1.0000

          k =-0.1179-0.1179-0.5893 (  2126 PWs)   bands (ev):

    -2.8536  -0.5316   2.3905   3.4880

     occupation numbers 
     1.0000   1.0000   1.0000   1.0000

          k =-0.2357 0.0000-0.4714 (  2113 PWs)   bands (ev):

    -3.6312   0.3868   2.4512   3.7381

     occupation numbers 
     1.0000   1.0000   1.0000   1.0000

          k =-0.3536 0.1179-0.3536 (  2122 PWs)   bands (ev):

    -3.8135   0.0182   2.9751   4.7466

     occupation numbers 
     1.0000   1.0000   1.0000   1.0000

          k =-0.3536 0.1179-0.1179 (  2106 PWs)   bands (ev):

    -4.6210   1.5882   4.0338   4.2954

     occupation numbers 
     1.0000   1.0000   1.0000   1.0000

          k =-0.4714 0.2357-0.0000 (  2113 PWs)   bands (ev):

    -3.6312   0.3868   2.4512   3.7381

     occupation numbers 
     1.0000   1.0000   1.0000   1.0000

          k =-0.5893 0.3536 0.1179 (  2122 PWs)   bands (ev):

    -2.6447  -0.8122   2.0081   3.2681

     occupation numbers 
     1.0000   1.0000   1.0000   1.0000

          k = 0.0000-0.2357-0.4714 (  2113 PWs)   bands (ev):

    -3.6312   0.3868   2.4512   3.7381

     occupation numbers 
     1.0000   1.0000   1.0000   1.0000

          k =-0.1179-0.1179-0.3536 (  2106 PWs)   bands (ev):

    -4.6210   1.5882   4.0338   4.2954

     occupation numbers 
     1.0000   1.0000   1.0000   1.0000

          k =-0.2357 0.0000-0.2357 (  2109 PWs)   bands (ev):

    -4.9707   2.3070   3.6126   5.4790

     occupation numbers 
     1.0000   1.0000   1.0000   1.0000

          k =-0.2357 0.0000 0.0000 (  2105 PWs)   bands (ev):

    -5.4360   3.9803   4.8472   4.8472

     occupation numbers 
     1.0000   1.0000   1.0000   1.0000

          k =-0.3536 0.1179 0.1179 (  2106 PWs)   bands (ev):

    -4.6210   1.5882   4.0338   4.2954

     occupation numbers 
     1.0000   1.0000   1.0000   1.0000

          k =-0.4714 0.2357 0.2357 (  2120 PWs)   bands (ev):

    -3.4274  -0.5821   3.2463   4.2666

     occupation numbers 
     1.0000   1.0000   1.0000   1.0000

          k = 0.1179-0.3536-0.3536 (  2122 PWs)   bands (ev):

    -3.8135   0.0182   2.9751   4.7466

     occupation numbers 
     1.0000   1.0000   1.0000   1.0000

          k = 0.0000-0.2357-0.2357 (  2109 PWs)   bands (ev):

    -4.9707   2.3070   3.6126   5.4790

     occupation numbers 
     1.0000   1.0000   1.0000   1.0000

          k =-0.1179-0.1179-0.1179 (  2112 PWs)   bands (ev):

    -5.5587   3.6418   5.5913   5.5913

     occupation numbers 
     1.0000   1.0000   1.0000   1.0000

     highest occupied level (ev):     6.0418

!    total energy              =     -17.04865354 Ry
     estimated scf accuracy    <          1.8E-11 Ry

     The total energy is the sum of the following terms:
     one-electron contribution =       4.84684936 Ry
     hartree contribution      =       1.09987103 Ry
     xc contribution           =      -6.19939965 Ry
     ewald contribution        =     -16.79597428 Ry

     total magnetization       =     0.00 Bohr mag/cell
     absolute magnetization    =     0.00 Bohr mag/cell

     convergence has been achieved in  15 iterations

     Forces acting on atoms (cartesian axes, Ry/au):

     atom    1 type  1   force =    -0.00000006   -0.00000011   -0.00000006
     atom    2 type  1   force =     0.00000006    0.00000011    0.00000006
     The non-local contrib.  to forces
     atom    1 type  1   force =     0.00000002    0.00000020   -0.00000048
     atom    2 type  1   force =     0.00000037   -0.00000002    0.00000048
     The ionic contribution  to forces
     atom    1 type  1   force =     0.00000000    0.00000000    0.00000000
     atom    2 type  1   force =    -0.00000000   -0.00000000   -0.00000000
     The local contribution  to forces
     atom    1 type  1   force =    -0.00000003   -0.00000049    0.00000048
     atom    2 type  1   force =    -0.00000028    0.00000011   -0.00000043
     The core correction contribution to forces
     atom    1 type  1   force =    -0.00000000   -0.00000002    0.00000002
     atom    2 type  1   force =    -0.00000002    0.00000000   -0.00000002
     The Hubbard contrib.    to forces
     atom    1 type  1   force =     0.00000000    0.00000000    0.00000000
     atom    2 type  1   force =     0.00000000    0.00000000    0.00000000
     The SCF correction term to forces
     atom    1 type  1   force =     0.00000004    0.00000011   -0.00000007
     atom    2 type  1   force =     0.00000007   -0.00000007    0.00000004

     Total force =     0.000000     Total SCF correction =     0.000000
     SCF correction compared to forces is large: reduce conv_thr to get better values


     Computing stress (Cartesian axis) and pressure

          total   stress  (Ry/bohr**3)                   (kbar)     P=      -18.15
  -0.00012336  -0.00000000   0.00000000          -18.15       -0.00        0.00
  -0.00000000  -0.00012336  -0.00000000           -0.00      -18.15       -0.00
   0.00000000  -0.00000000  -0.00012336            0.00       -0.00      -18.15

     kinetic stress (kbar)   2236.84     -0.00      0.00
                               -0.00   2236.84     -0.00
                                0.00     -0.00   2236.84

     local   stress (kbar)   -420.42     -0.00      0.00
                               -0.00   -420.42     -0.00
                                0.00     -0.00   -420.42

     nonloc. stress (kbar)   1970.45      0.00     -0.00
                                0.00   1970.45      0.00
                               -0.00      0.00   1970.45

     hartree stress (kbar)    199.56      0.00     -0.00
                                0.00    199.56      0.00
                               -0.00      0.00    199.56

     exc-cor stress (kbar)   -150.03      0.00      0.00
                                0.00   -150.03      0.00
                                0.00      0.00   -150.03

     corecor stress (kbar)   -807.05     -0.00      0.00
                               -0.00   -807.05     -0.00
                                0.00     -0.00   -807.05

     ewald   stress (kbar)  -3047.51     -0.00      0.00
                               -0.00  -3047.51     -0.00
                                0.00     -0.00  -3047.51

     hubbard stress (kbar)      0.00      0.00      0.00
                                0.00      0.00      0.00
                                0.00      0.00      0.00

     DFT-D   stress (kbar)      0.00      0.00      0.00
                                0.00      0.00      0.00
                                0.00      0.00      0.00

     XDM     stress (kbar)      0.00      0.00      0.00
                                0.00      0.00      0.00
                                0.00      0.00      0.00

     dft-nl  stress (kbar)      0.00      0.00      0.00
                                0.00      0.00      0.00
                                0.00      0.00      0.00

     TS-vdW  stress (kbar)      0.00      0.00      0.00
                                0.00      0.00      0.00
                                0.00      0.00      0.00

     MDB     stress (kbar)      0.00      0.00      0.00
                                0.00      0.00      0.00
                                0.00      0.00      0.00

     3D-RISM stress (kbar)      0.00      0.00      0.00
                                0.00      0.00      0.00
                                0.00      0.00      0.00


     Writing all to output data dir ./out/si_lda.save/ :
     XML data file, charge density, pseudopotentials, collected wavefunctions

     init_run     :      2.90s CPU      2.95s WALL (       1 calls)
     electrons    :     84.53s CPU     84.97s WALL (       1 calls)
     forces       :      0.78s CPU      0.79s WALL (       1 calls)
     stress       :      4.33s CPU      4.34s WALL (       1 calls)

     Called by init_run:
     wfcinit      :      2.42s CPU      2.45s WALL (       1 calls)
     wfcinit:atom :      0.07s CPU      0.07s WALL (     432 calls)
     wfcinit:wfcr :      1.95s CPU      1.98s WALL (     432 calls)
     potinit      :      0.18s CPU      0.18s WALL (       1 calls)
     hinit0       :      0.22s CPU      0.22s WALL (       1 calls)

     Called by electrons:
     c_bands      :     75.04s CPU     75.45s WALL (      16 calls)
     sum_band     :      8.95s CPU      8.98s WALL (      16 calls)
     v_of_rho     :      0.35s CPU      0.35s WALL (      16 calls)
     v_h          :      0.03s CPU      0.03s WALL (      16 calls)
     v_xc         :      0.35s CPU      0.36s WALL (      18 calls)
     mix_rho      :      0.13s CPU      0.13s WALL (      16 calls)

     Called by c_bands:
     init_us_2    :      5.72s CPU      5.75s WALL (   15120 calls)
     cegterg      :     62.25s CPU     62.59s WALL (    6912 calls)

     Called by sum_band:
     sum_band:wei :      0.00s CPU      0.00s WALL (      16 calls)
     sum_band:loo :      8.88s CPU      8.91s WALL (      16 calls)
     sum_band:buf :      0.08s CPU      0.08s WALL (    6912 calls)
     sum_band:ini :      2.62s CPU      2.63s WALL (    6912 calls)

     Called by *egterg:
     cdiaghg      :      0.59s CPU      0.59s WALL (   28686 calls)
     cegterg:over :      2.04s CPU      2.06s WALL (   22206 calls)
     cegterg:upda :      1.13s CPU      1.14s WALL (   22206 calls)
     cegterg:last :      1.79s CPU      1.80s WALL (   20364 calls)
     h_psi        :     57.00s CPU     57.33s WALL (   29550 calls)
     g_psi        :      0.48s CPU      0.49s WALL (   22206 calls)

     Called by h_psi:
     h_psi:calbec :      6.97s CPU      7.01s WALL (   29550 calls)
     vloc_psi     :     44.07s CPU     44.32s WALL (   29550 calls)
     add_vuspsi   :      5.70s CPU      5.74s WALL (   29550 calls)

     General routines
     calbec       :      7.51s CPU      7.56s WALL (   31710 calls)
     fft          :      0.28s CPU      0.28s WALL (     148 calls)
     ffts         :      0.15s CPU      0.15s WALL (      64 calls)
     fftw         :     39.75s CPU     39.97s WALL (  234204 calls)
     interpolate  :      0.18s CPU      0.18s WALL (      32 calls)

     Parallel routines

     PWSCF        :   1m32.61s CPU   1m33.18s WALL


   This run was terminated on:  15:34:44   3Sep2024            

=------------------------------------------------------------------------------=
   JOB DONE.
=------------------------------------------------------------------------------=
