
     Program PWSCF v.7.3.1 starts on 25Aug2024 at 15:52:59 

     This program is part of the open-source Quantum ESPRESSO suite
     for quantum simulation of materials; please cite
         "P. Giannozzi et al., J. Phys.:Condens. Matter 21 395502 (2009);
         "P. Giannozzi et al., J. Phys.:Condens. Matter 29 465901 (2017);
         "P. Giannozzi et al., J. Chem. Phys. 152 154105 (2020);
          URL http://www.quantum-espresso.org", 
     in publications or presentations arising from this work. More details at
     http://www.quantum-espresso.org/quote

     Parallel version (MPI), running on     1 processors

     MPI processes distributed on     1 nodes
     4539 MiB available memory on the printing compute node when the environment starts

     Reading input from si_lda.pwi

     Current dimensions of program PWSCF are:
     Max number of different atomic species (ntypx) = 10
     Max number of k-points (npk) =  40000
     Max angular momentum in pseudopotentials (lmaxx) =  4
     Message from routine volume:
     axis vectors are left-handed

     Subspace diagonalization in iterative solution of the eigenvalue problem:
     a serial algorithm will be used


     G-vector sticks info
     --------------------
     sticks:   dense  smooth     PW     G-vecs:    dense   smooth      PW
     Sum         859     433    151                16889     5985    1243

     Using Slab Decomposition



     bravais-lattice index     =            0
     lattice parameter (alat)  =       7.2571  a.u.
     unit-cell volume          =     270.2504 (a.u.)^3
     number of atoms/cell      =            2
     number of atomic types    =            1
     number of electrons       =         8.00 (up:   4.00, down:   4.00)
     number of Kohn-Sham states=            4
     kinetic-energy cutoff     =      30.0000  Ry
     charge density cutoff     =     240.0000  Ry
     scf convergence threshold =      4.0E-10
     mixing beta               =       0.4000
     number of iterations used =            8  plain     mixing
     Exchange-correlation= SLA  PW   NOGX NOGC
                           (   1   4   0   0   0   0   0)

     celldm(1)=   7.257056  celldm(2)=   0.000000  celldm(3)=   0.000000
     celldm(4)=   0.000000  celldm(5)=   0.000000  celldm(6)=   0.000000

     crystal axes: (cart. coord. in units of alat)
               a(1) = (   0.707107   0.707107   0.000000 )  
               a(2) = (   0.707107   0.000000   0.707107 )  
               a(3) = (   0.000000   0.707107   0.707107 )  

     reciprocal axes: (cart. coord. in units 2 pi/alat)
               b(1) = (  0.707107  0.707107 -0.707107 )  
               b(2) = (  0.707107 -0.707107  0.707107 )  
               b(3) = ( -0.707107  0.707107  0.707107 )  


     PseudoPot. # 1 for Si read from file:
     ./pseudo/Si_lda.upf
     MD5 check sum: 9e2d726316af3d4752eea8ab0afbb951
     Pseudo is Norm-conserving + core correction, Zval =  4.0
     Generated using ONCVPSP code by D. R. Hamann
     Using radial grid of 1510 points,  6 beta functions with: 
                l(1) =   0
                l(2) =   0
                l(3) =   1
                l(4) =   1
                l(5) =   2
                l(6) =   2

     atomic species   valence    mass     pseudopotential
     Si                4.00    28.08550     Si( 1.00)

     Starting magnetic structure 
     atomic species   magnetization
     Si              0.000

     No symmetry found


                                    s                        frac. trans.

      isym =  1     identity                                     

 cryst.   s( 1) = (     1          0          0      )
                  (     0          1          0      )
                  (     0          0          1      )

 cart.    s( 1) = (  1.0000000  0.0000000  0.0000000 )
                  (  0.0000000  1.0000000  0.0000000 )
                  (  0.0000000  0.0000000  1.0000000 )


   Cartesian axes

     site n.     atom                  positions (alat units)
         1        Si     tau(   1) = (   0.0000000   0.0000000   0.0000000  )
         2        Si     tau(   2) = (   0.3535534   0.3535534   0.3535534  )

   Crystallographic axes

     site n.     atom                  positions (cryst. coord.)
         1        Si     tau(   1) = (  0.0000000  0.0000000  0.0000000  )
         2        Si     tau(   2) = (  0.2500000  0.2500000  0.2500000  )

     number of k points=  1331
                       cart. coord. in units 2pi/alat
        k(    1) = (   0.0000000   0.0000000   0.0000000), wk =   0.0007513
        k(    2) = (  -0.0642824   0.0642824   0.0642824), wk =   0.0007513
        k(    3) = (  -0.1285649   0.1285649   0.1285649), wk =   0.0007513
        k(    4) = (  -0.1928473   0.1928473   0.1928473), wk =   0.0007513
        k(    5) = (  -0.2571297   0.2571297   0.2571297), wk =   0.0007513
        k(    6) = (  -0.3214122   0.3214122   0.3214122), wk =   0.0007513
        k(    7) = (   0.3214122  -0.3214122  -0.3214122), wk =   0.0007513
        k(    8) = (   0.2571297  -0.2571297  -0.2571297), wk =   0.0007513
        k(    9) = (   0.1928473  -0.1928473  -0.1928473), wk =   0.0007513
        k(   10) = (   0.1285649  -0.1285649  -0.1285649), wk =   0.0007513
        k(   11) = (   0.0642824  -0.0642824  -0.0642824), wk =   0.0007513
        k(   12) = (   0.0642824  -0.0642824   0.0642824), wk =   0.0007513
        k(   13) = (   0.0000000   0.0000000   0.1285649), wk =   0.0007513
        k(   14) = (  -0.0642824   0.0642824   0.1928473), wk =   0.0007513
        k(   15) = (  -0.1285649   0.1285649   0.2571297), wk =   0.0007513
        k(   16) = (  -0.1928473   0.1928473   0.3214122), wk =   0.0007513
        k(   17) = (  -0.2571297   0.2571297   0.3856946), wk =   0.0007513
        k(   18) = (   0.3856946  -0.3856946  -0.2571297), wk =   0.0007513
        k(   19) = (   0.3214122  -0.3214122  -0.1928473), wk =   0.0007513
        k(   20) = (   0.2571297  -0.2571297  -0.1285649), wk =   0.0007513
        k(   21) = (   0.1928473  -0.1928473  -0.0642824), wk =   0.0007513
        k(   22) = (   0.1285649  -0.1285649  -0.0000000), wk =   0.0007513
        k(   23) = (   0.1285649  -0.1285649   0.1285649), wk =   0.0007513
        k(   24) = (   0.0642824  -0.0642824   0.1928473), wk =   0.0007513
        k(   25) = (   0.0000000   0.0000000   0.2571297), wk =   0.0007513
        k(   26) = (  -0.0642824   0.0642824   0.3214122), wk =   0.0007513
        k(   27) = (  -0.1285649   0.1285649   0.3856946), wk =   0.0007513
        k(   28) = (  -0.1928473   0.1928473   0.4499770), wk =   0.0007513
        k(   29) = (   0.4499770  -0.4499770  -0.1928473), wk =   0.0007513
        k(   30) = (   0.3856946  -0.3856946  -0.1285649), wk =   0.0007513
        k(   31) = (   0.3214122  -0.3214122  -0.0642824), wk =   0.0007513
        k(   32) = (   0.2571297  -0.2571297   0.0000000), wk =   0.0007513
        k(   33) = (   0.1928473  -0.1928473   0.0642824), wk =   0.0007513
        k(   34) = (   0.1928473  -0.1928473   0.1928473), wk =   0.0007513
        k(   35) = (   0.1285649  -0.1285649   0.2571297), wk =   0.0007513
        k(   36) = (   0.0642824  -0.0642824   0.3214122), wk =   0.0007513
        k(   37) = (   0.0000000   0.0000000   0.3856946), wk =   0.0007513
        k(   38) = (  -0.0642824   0.0642824   0.4499770), wk =   0.0007513
        k(   39) = (  -0.1285649   0.1285649   0.5142595), wk =   0.0007513
        k(   40) = (   0.5142595  -0.5142595  -0.1285649), wk =   0.0007513
        k(   41) = (   0.4499770  -0.4499770  -0.0642824), wk =   0.0007513
        k(   42) = (   0.3856946  -0.3856946   0.0000000), wk =   0.0007513
        k(   43) = (   0.3214122  -0.3214122   0.0642824), wk =   0.0007513
        k(   44) = (   0.2571297  -0.2571297   0.1285649), wk =   0.0007513
        k(   45) = (   0.2571297  -0.2571297   0.2571297), wk =   0.0007513
        k(   46) = (   0.1928473  -0.1928473   0.3214122), wk =   0.0007513
        k(   47) = (   0.1285649  -0.1285649   0.3856946), wk =   0.0007513
        k(   48) = (   0.0642824  -0.0642824   0.4499770), wk =   0.0007513
        k(   49) = (   0.0000000   0.0000000   0.5142595), wk =   0.0007513
        k(   50) = (  -0.0642824   0.0642824   0.5785419), wk =   0.0007513
        k(   51) = (   0.5785419  -0.5785419  -0.0642824), wk =   0.0007513
        k(   52) = (   0.5142595  -0.5142595   0.0000000), wk =   0.0007513
        k(   53) = (   0.4499770  -0.4499770   0.0642824), wk =   0.0007513
        k(   54) = (   0.3856946  -0.3856946   0.1285649), wk =   0.0007513
        k(   55) = (   0.3214122  -0.3214122   0.1928473), wk =   0.0007513
        k(   56) = (   0.3214122  -0.3214122   0.3214122), wk =   0.0007513
        k(   57) = (   0.2571297  -0.2571297   0.3856946), wk =   0.0007513
        k(   58) = (   0.1928473  -0.1928473   0.4499770), wk =   0.0007513
        k(   59) = (   0.1285649  -0.1285649   0.5142595), wk =   0.0007513
        k(   60) = (   0.0642824  -0.0642824   0.5785419), wk =   0.0007513
        k(   61) = (   0.0000000   0.0000000   0.6428243), wk =   0.0007513
        k(   62) = (   0.6428243  -0.6428243  -0.0000000), wk =   0.0007513
        k(   63) = (   0.5785419  -0.5785419   0.0642824), wk =   0.0007513
        k(   64) = (   0.5142595  -0.5142595   0.1285649), wk =   0.0007513
        k(   65) = (   0.4499770  -0.4499770   0.1928473), wk =   0.0007513
        k(   66) = (   0.3856946  -0.3856946   0.2571297), wk =   0.0007513
        k(   67) = (  -0.3214122   0.3214122  -0.3214122), wk =   0.0007513
        k(   68) = (  -0.3856946   0.3856946  -0.2571297), wk =   0.0007513
        k(   69) = (  -0.4499770   0.4499770  -0.1928473), wk =   0.0007513
        k(   70) = (  -0.5142595   0.5142595  -0.1285649), wk =   0.0007513
        k(   71) = (  -0.5785419   0.5785419  -0.0642824), wk =   0.0007513
        k(   72) = (  -0.6428243   0.6428243  -0.0000000), wk =   0.0007513
        k(   73) = (   0.0000000   0.0000000  -0.6428243), wk =   0.0007513
        k(   74) = (  -0.0642824   0.0642824  -0.5785419), wk =   0.0007513
        k(   75) = (  -0.1285649   0.1285649  -0.5142595), wk =   0.0007513
        k(   76) = (  -0.1928473   0.1928473  -0.4499770), wk =   0.0007513
        k(   77) = (  -0.2571297   0.2571297  -0.3856946), wk =   0.0007513
        k(   78) = (  -0.2571297   0.2571297  -0.2571297), wk =   0.0007513
        k(   79) = (  -0.3214122   0.3214122  -0.1928473), wk =   0.0007513
        k(   80) = (  -0.3856946   0.3856946  -0.1285649), wk =   0.0007513
        k(   81) = (  -0.4499770   0.4499770  -0.0642824), wk =   0.0007513
        k(   82) = (  -0.5142595   0.5142595   0.0000000), wk =   0.0007513
        k(   83) = (  -0.5785419   0.5785419   0.0642824), wk =   0.0007513
        k(   84) = (   0.0642824  -0.0642824  -0.5785419), wk =   0.0007513
        k(   85) = (   0.0000000   0.0000000  -0.5142595), wk =   0.0007513
        k(   86) = (  -0.0642824   0.0642824  -0.4499770), wk =   0.0007513
        k(   87) = (  -0.1285649   0.1285649  -0.3856946), wk =   0.0007513
        k(   88) = (  -0.1928473   0.1928473  -0.3214122), wk =   0.0007513
        k(   89) = (  -0.1928473   0.1928473  -0.1928473), wk =   0.0007513
        k(   90) = (  -0.2571297   0.2571297  -0.1285649), wk =   0.0007513
        k(   91) = (  -0.3214122   0.3214122  -0.0642824), wk =   0.0007513
        k(   92) = (  -0.3856946   0.3856946   0.0000000), wk =   0.0007513
        k(   93) = (  -0.4499770   0.4499770   0.0642824), wk =   0.0007513
        k(   94) = (  -0.5142595   0.5142595   0.1285649), wk =   0.0007513
        k(   95) = (   0.1285649  -0.1285649  -0.5142595), wk =   0.0007513
        k(   96) = (   0.0642824  -0.0642824  -0.4499770), wk =   0.0007513
        k(   97) = (   0.0000000   0.0000000  -0.3856946), wk =   0.0007513
        k(   98) = (  -0.0642824   0.0642824  -0.3214122), wk =   0.0007513
        k(   99) = (  -0.1285649   0.1285649  -0.2571297), wk =   0.0007513
        k(  100) = (  -0.1285649   0.1285649  -0.1285649), wk =   0.0007513
        k(  101) = (  -0.1928473   0.1928473  -0.0642824), wk =   0.0007513
        k(  102) = (  -0.2571297   0.2571297   0.0000000), wk =   0.0007513
        k(  103) = (  -0.3214122   0.3214122   0.0642824), wk =   0.0007513
        k(  104) = (  -0.3856946   0.3856946   0.1285649), wk =   0.0007513
        k(  105) = (  -0.4499770   0.4499770   0.1928473), wk =   0.0007513
        k(  106) = (   0.1928473  -0.1928473  -0.4499770), wk =   0.0007513
        k(  107) = (   0.1285649  -0.1285649  -0.3856946), wk =   0.0007513
        k(  108) = (   0.0642824  -0.0642824  -0.3214122), wk =   0.0007513
        k(  109) = (   0.0000000   0.0000000  -0.2571297), wk =   0.0007513
        k(  110) = (  -0.0642824   0.0642824  -0.1928473), wk =   0.0007513
        k(  111) = (  -0.0642824   0.0642824  -0.0642824), wk =   0.0007513
        k(  112) = (  -0.1285649   0.1285649  -0.0000000), wk =   0.0007513
        k(  113) = (  -0.1928473   0.1928473   0.0642824), wk =   0.0007513
        k(  114) = (  -0.2571297   0.2571297   0.1285649), wk =   0.0007513
        k(  115) = (  -0.3214122   0.3214122   0.1928473), wk =   0.0007513
        k(  116) = (  -0.3856946   0.3856946   0.2571297), wk =   0.0007513
        k(  117) = (   0.2571297  -0.2571297  -0.3856946), wk =   0.0007513
        k(  118) = (   0.1928473  -0.1928473  -0.3214122), wk =   0.0007513
        k(  119) = (   0.1285649  -0.1285649  -0.2571297), wk =   0.0007513
        k(  120) = (   0.0642824  -0.0642824  -0.1928473), wk =   0.0007513
        k(  121) = (   0.0000000   0.0000000  -0.1285649), wk =   0.0007513
        k(  122) = (   0.0642824   0.0642824  -0.0642824), wk =   0.0007513
        k(  123) = (   0.0000000   0.1285649   0.0000000), wk =   0.0007513
        k(  124) = (  -0.0642824   0.1928473   0.0642824), wk =   0.0007513
        k(  125) = (  -0.1285649   0.2571297   0.1285649), wk =   0.0007513
        k(  126) = (  -0.1928473   0.3214122   0.1928473), wk =   0.0007513
        k(  127) = (  -0.2571297   0.3856946   0.2571297), wk =   0.0007513
        k(  128) = (   0.3856946  -0.2571297  -0.3856946), wk =   0.0007513
        k(  129) = (   0.3214122  -0.1928473  -0.3214122), wk =   0.0007513
        k(  130) = (   0.2571297  -0.1285649  -0.2571297), wk =   0.0007513
        k(  131) = (   0.1928473  -0.0642824  -0.1928473), wk =   0.0007513
        k(  132) = (   0.1285649  -0.0000000  -0.1285649), wk =   0.0007513
        k(  133) = (   0.1285649   0.0000000   0.0000000), wk =   0.0007513
        k(  134) = (   0.0642824   0.0642824   0.0642824), wk =   0.0007513
        k(  135) = (   0.0000000   0.1285649   0.1285649), wk =   0.0007513
        k(  136) = (  -0.0642824   0.1928473   0.1928473), wk =   0.0007513
        k(  137) = (  -0.1285649   0.2571297   0.2571297), wk =   0.0007513
        k(  138) = (  -0.1928473   0.3214122   0.3214122), wk =   0.0007513
        k(  139) = (   0.4499770  -0.3214122  -0.3214122), wk =   0.0007513
        k(  140) = (   0.3856946  -0.2571297  -0.2571297), wk =   0.0007513
        k(  141) = (   0.3214122  -0.1928473  -0.1928473), wk =   0.0007513
        k(  142) = (   0.2571297  -0.1285649  -0.1285649), wk =   0.0007513
        k(  143) = (   0.1928473  -0.0642824  -0.0642824), wk =   0.0007513
        k(  144) = (   0.1928473  -0.0642824   0.0642824), wk =   0.0007513
        k(  145) = (   0.1285649   0.0000000   0.1285649), wk =   0.0007513
        k(  146) = (   0.0642824   0.0642824   0.1928473), wk =   0.0007513
        k(  147) = (   0.0000000   0.1285649   0.2571297), wk =   0.0007513
        k(  148) = (  -0.0642824   0.1928473   0.3214122), wk =   0.0007513
        k(  149) = (  -0.1285649   0.2571297   0.3856946), wk =   0.0007513
        k(  150) = (   0.5142595  -0.3856946  -0.2571297), wk =   0.0007513
        k(  151) = (   0.4499770  -0.3214122  -0.1928473), wk =   0.0007513
        k(  152) = (   0.3856946  -0.2571297  -0.1285649), wk =   0.0007513
        k(  153) = (   0.3214122  -0.1928473  -0.0642824), wk =   0.0007513
        k(  154) = (   0.2571297  -0.1285649  -0.0000000), wk =   0.0007513
        k(  155) = (   0.2571297  -0.1285649   0.1285649), wk =   0.0007513
        k(  156) = (   0.1928473  -0.0642824   0.1928473), wk =   0.0007513
        k(  157) = (   0.1285649   0.0000000   0.2571297), wk =   0.0007513
        k(  158) = (   0.0642824   0.0642824   0.3214122), wk =   0.0007513
        k(  159) = (   0.0000000   0.1285649   0.3856946), wk =   0.0007513
        k(  160) = (  -0.0642824   0.1928473   0.4499770), wk =   0.0007513
        k(  161) = (   0.5785419  -0.4499770  -0.1928473), wk =   0.0007513
        k(  162) = (   0.5142595  -0.3856946  -0.1285649), wk =   0.0007513
        k(  163) = (   0.4499770  -0.3214122  -0.0642824), wk =   0.0007513
        k(  164) = (   0.3856946  -0.2571297   0.0000000), wk =   0.0007513
        k(  165) = (   0.3214122  -0.1928473   0.0642824), wk =   0.0007513
        k(  166) = (   0.3214122  -0.1928473   0.1928473), wk =   0.0007513
        k(  167) = (   0.2571297  -0.1285649   0.2571297), wk =   0.0007513
        k(  168) = (   0.1928473  -0.0642824   0.3214122), wk =   0.0007513
        k(  169) = (   0.1285649  -0.0000000   0.3856946), wk =   0.0007513
        k(  170) = (   0.0642824   0.0642824   0.4499770), wk =   0.0007513
        k(  171) = (   0.0000000   0.1285649   0.5142595), wk =   0.0007513
        k(  172) = (   0.6428243  -0.5142595  -0.1285649), wk =   0.0007513
        k(  173) = (   0.5785419  -0.4499770  -0.0642824), wk =   0.0007513
        k(  174) = (   0.5142595  -0.3856946   0.0000000), wk =   0.0007513
        k(  175) = (   0.4499770  -0.3214122   0.0642824), wk =   0.0007513
        k(  176) = (   0.3856946  -0.2571297   0.1285649), wk =   0.0007513
        k(  177) = (   0.3856946  -0.2571297   0.2571297), wk =   0.0007513
        k(  178) = (   0.3214122  -0.1928473   0.3214122), wk =   0.0007513
        k(  179) = (   0.2571297  -0.1285649   0.3856946), wk =   0.0007513
        k(  180) = (   0.1928473  -0.0642824   0.4499770), wk =   0.0007513
        k(  181) = (   0.1285649   0.0000000   0.5142595), wk =   0.0007513
        k(  182) = (   0.0642824   0.0642824   0.5785419), wk =   0.0007513
        k(  183) = (   0.7071068  -0.5785419  -0.0642824), wk =   0.0007513
        k(  184) = (   0.6428243  -0.5142595   0.0000000), wk =   0.0007513
        k(  185) = (   0.5785419  -0.4499770   0.0642824), wk =   0.0007513
        k(  186) = (   0.5142595  -0.3856946   0.1285649), wk =   0.0007513
        k(  187) = (   0.4499770  -0.3214122   0.1928473), wk =   0.0007513
        k(  188) = (  -0.2571297   0.3856946  -0.3856946), wk =   0.0007513
        k(  189) = (  -0.3214122   0.4499770  -0.3214122), wk =   0.0007513
        k(  190) = (  -0.3856946   0.5142595  -0.2571297), wk =   0.0007513
        k(  191) = (  -0.4499770   0.5785419  -0.1928473), wk =   0.0007513
        k(  192) = (  -0.5142595   0.6428243  -0.1285649), wk =   0.0007513
        k(  193) = (  -0.5785419   0.7071068  -0.0642824), wk =   0.0007513
        k(  194) = (   0.0642824   0.0642824  -0.7071068), wk =   0.0007513
        k(  195) = (  -0.0000000   0.1285649  -0.6428243), wk =   0.0007513
        k(  196) = (  -0.0642824   0.1928473  -0.5785419), wk =   0.0007513
        k(  197) = (  -0.1285649   0.2571297  -0.5142595), wk =   0.0007513
        k(  198) = (  -0.1928473   0.3214122  -0.4499770), wk =   0.0007513
        k(  199) = (  -0.1928473   0.3214122  -0.3214122), wk =   0.0007513
        k(  200) = (  -0.2571297   0.3856946  -0.2571297), wk =   0.0007513
        k(  201) = (  -0.3214122   0.4499770  -0.1928473), wk =   0.0007513
        k(  202) = (  -0.3856946   0.5142595  -0.1285649), wk =   0.0007513
        k(  203) = (  -0.4499770   0.5785419  -0.0642824), wk =   0.0007513
        k(  204) = (  -0.5142595   0.6428243   0.0000000), wk =   0.0007513
        k(  205) = (   0.1285649  -0.0000000  -0.6428243), wk =   0.0007513
        k(  206) = (   0.0642824   0.0642824  -0.5785419), wk =   0.0007513
        k(  207) = (  -0.0000000   0.1285649  -0.5142595), wk =   0.0007513
        k(  208) = (  -0.0642824   0.1928473  -0.4499770), wk =   0.0007513
        k(  209) = (  -0.1285649   0.2571297  -0.3856946), wk =   0.0007513
        k(  210) = (  -0.1285649   0.2571297  -0.2571297), wk =   0.0007513
        k(  211) = (  -0.1928473   0.3214122  -0.1928473), wk =   0.0007513
        k(  212) = (  -0.2571297   0.3856946  -0.1285649), wk =   0.0007513
        k(  213) = (  -0.3214122   0.4499770  -0.0642824), wk =   0.0007513
        k(  214) = (  -0.3856946   0.5142595   0.0000000), wk =   0.0007513
        k(  215) = (  -0.4499770   0.5785419   0.0642824), wk =   0.0007513
        k(  216) = (   0.1928473  -0.0642824  -0.5785419), wk =   0.0007513
        k(  217) = (   0.1285649   0.0000000  -0.5142595), wk =   0.0007513
        k(  218) = (   0.0642824   0.0642824  -0.4499770), wk =   0.0007513
        k(  219) = (   0.0000000   0.1285649  -0.3856946), wk =   0.0007513
        k(  220) = (  -0.0642824   0.1928473  -0.3214122), wk =   0.0007513
        k(  221) = (  -0.0642824   0.1928473  -0.1928473), wk =   0.0007513
        k(  222) = (  -0.1285649   0.2571297  -0.1285649), wk =   0.0007513
        k(  223) = (  -0.1928473   0.3214122  -0.0642824), wk =   0.0007513
        k(  224) = (  -0.2571297   0.3856946   0.0000000), wk =   0.0007513
        k(  225) = (  -0.3214122   0.4499770   0.0642824), wk =   0.0007513
        k(  226) = (  -0.3856946   0.5142595   0.1285649), wk =   0.0007513
        k(  227) = (   0.2571297  -0.1285649  -0.5142595), wk =   0.0007513
        k(  228) = (   0.1928473  -0.0642824  -0.4499770), wk =   0.0007513
        k(  229) = (   0.1285649   0.0000000  -0.3856946), wk =   0.0007513
        k(  230) = (   0.0642824   0.0642824  -0.3214122), wk =   0.0007513
        k(  231) = (   0.0000000   0.1285649  -0.2571297), wk =   0.0007513
        k(  232) = (  -0.0000000   0.1285649  -0.1285649), wk =   0.0007513
        k(  233) = (  -0.0642824   0.1928473  -0.0642824), wk =   0.0007513
        k(  234) = (  -0.1285649   0.2571297  -0.0000000), wk =   0.0007513
        k(  235) = (  -0.1928473   0.3214122   0.0642824), wk =   0.0007513
        k(  236) = (  -0.2571297   0.3856946   0.1285649), wk =   0.0007513
        k(  237) = (  -0.3214122   0.4499770   0.1928473), wk =   0.0007513
        k(  238) = (   0.3214122  -0.1928473  -0.4499770), wk =   0.0007513
        k(  239) = (   0.2571297  -0.1285649  -0.3856946), wk =   0.0007513
        k(  240) = (   0.1928473  -0.0642824  -0.3214122), wk =   0.0007513
        k(  241) = (   0.1285649   0.0000000  -0.2571297), wk =   0.0007513
        k(  242) = (   0.0642824   0.0642824  -0.1928473), wk =   0.0007513
        k(  243) = (   0.1285649   0.1285649  -0.1285649), wk =   0.0007513
        k(  244) = (   0.0642824   0.1928473  -0.0642824), wk =   0.0007513
        k(  245) = (   0.0000000   0.2571297   0.0000000), wk =   0.0007513
        k(  246) = (  -0.0642824   0.3214122   0.0642824), wk =   0.0007513
        k(  247) = (  -0.1285649   0.3856946   0.1285649), wk =   0.0007513
        k(  248) = (  -0.1928473   0.4499770   0.1928473), wk =   0.0007513
        k(  249) = (   0.4499770  -0.1928473  -0.4499770), wk =   0.0007513
        k(  250) = (   0.3856946  -0.1285649  -0.3856946), wk =   0.0007513
        k(  251) = (   0.3214122  -0.0642824  -0.3214122), wk =   0.0007513
        k(  252) = (   0.2571297   0.0000000  -0.2571297), wk =   0.0007513
        k(  253) = (   0.1928473   0.0642824  -0.1928473), wk =   0.0007513
        k(  254) = (   0.1928473   0.0642824  -0.0642824), wk =   0.0007513
        k(  255) = (   0.1285649   0.1285649   0.0000000), wk =   0.0007513
        k(  256) = (   0.0642824   0.1928473   0.0642824), wk =   0.0007513
        k(  257) = (   0.0000000   0.2571297   0.1285649), wk =   0.0007513
        k(  258) = (  -0.0642824   0.3214122   0.1928473), wk =   0.0007513
        k(  259) = (  -0.1285649   0.3856946   0.2571297), wk =   0.0007513
        k(  260) = (   0.5142595  -0.2571297  -0.3856946), wk =   0.0007513
        k(  261) = (   0.4499770  -0.1928473  -0.3214122), wk =   0.0007513
        k(  262) = (   0.3856946  -0.1285649  -0.2571297), wk =   0.0007513
        k(  263) = (   0.3214122  -0.0642824  -0.1928473), wk =   0.0007513
        k(  264) = (   0.2571297  -0.0000000  -0.1285649), wk =   0.0007513
        k(  265) = (   0.2571297   0.0000000   0.0000000), wk =   0.0007513
        k(  266) = (   0.1928473   0.0642824   0.0642824), wk =   0.0007513
        k(  267) = (   0.1285649   0.1285649   0.1285649), wk =   0.0007513
        k(  268) = (   0.0642824   0.1928473   0.1928473), wk =   0.0007513
        k(  269) = (   0.0000000   0.2571297   0.2571297), wk =   0.0007513
        k(  270) = (  -0.0642824   0.3214122   0.3214122), wk =   0.0007513
        k(  271) = (   0.5785419  -0.3214122  -0.3214122), wk =   0.0007513
        k(  272) = (   0.5142595  -0.2571297  -0.2571297), wk =   0.0007513
        k(  273) = (   0.4499770  -0.1928473  -0.1928473), wk =   0.0007513
        k(  274) = (   0.3856946  -0.1285649  -0.1285649), wk =   0.0007513
        k(  275) = (   0.3214122  -0.0642824  -0.0642824), wk =   0.0007513
        k(  276) = (   0.3214122  -0.0642824   0.0642824), wk =   0.0007513
        k(  277) = (   0.2571297   0.0000000   0.1285649), wk =   0.0007513
        k(  278) = (   0.1928473   0.0642824   0.1928473), wk =   0.0007513
        k(  279) = (   0.1285649   0.1285649   0.2571297), wk =   0.0007513
        k(  280) = (   0.0642824   0.1928473   0.3214122), wk =   0.0007513
        k(  281) = (   0.0000000   0.2571297   0.3856946), wk =   0.0007513
        k(  282) = (   0.6428243  -0.3856946  -0.2571297), wk =   0.0007513
        k(  283) = (   0.5785419  -0.3214122  -0.1928473), wk =   0.0007513
        k(  284) = (   0.5142595  -0.2571297  -0.1285649), wk =   0.0007513
        k(  285) = (   0.4499770  -0.1928473  -0.0642824), wk =   0.0007513
        k(  286) = (   0.3856946  -0.1285649  -0.0000000), wk =   0.0007513
        k(  287) = (   0.3856946  -0.1285649   0.1285649), wk =   0.0007513
        k(  288) = (   0.3214122  -0.0642824   0.1928473), wk =   0.0007513
        k(  289) = (   0.2571297   0.0000000   0.2571297), wk =   0.0007513
        k(  290) = (   0.1928473   0.0642824   0.3214122), wk =   0.0007513
        k(  291) = (   0.1285649   0.1285649   0.3856946), wk =   0.0007513
        k(  292) = (   0.0642824   0.1928473   0.4499770), wk =   0.0007513
        k(  293) = (   0.7071068  -0.4499770  -0.1928473), wk =   0.0007513
        k(  294) = (   0.6428243  -0.3856946  -0.1285649), wk =   0.0007513
        k(  295) = (   0.5785419  -0.3214122  -0.0642824), wk =   0.0007513
        k(  296) = (   0.5142595  -0.2571297   0.0000000), wk =   0.0007513
        k(  297) = (   0.4499770  -0.1928473   0.0642824), wk =   0.0007513
        k(  298) = (   0.4499770  -0.1928473   0.1928473), wk =   0.0007513
        k(  299) = (   0.3856946  -0.1285649   0.2571297), wk =   0.0007513
        k(  300) = (   0.3214122  -0.0642824   0.3214122), wk =   0.0007513
        k(  301) = (   0.2571297  -0.0000000   0.3856946), wk =   0.0007513
        k(  302) = (   0.1928473   0.0642824   0.4499770), wk =   0.0007513
        k(  303) = (   0.1285649   0.1285649   0.5142595), wk =   0.0007513
        k(  304) = (   0.7713892  -0.5142595  -0.1285649), wk =   0.0007513
        k(  305) = (   0.7071068  -0.4499770  -0.0642824), wk =   0.0007513
        k(  306) = (   0.6428243  -0.3856946   0.0000000), wk =   0.0007513
        k(  307) = (   0.5785419  -0.3214122   0.0642824), wk =   0.0007513
        k(  308) = (   0.5142595  -0.2571297   0.1285649), wk =   0.0007513
        k(  309) = (  -0.1928473   0.4499770  -0.4499770), wk =   0.0007513
        k(  310) = (  -0.2571297   0.5142595  -0.3856946), wk =   0.0007513
        k(  311) = (  -0.3214122   0.5785419  -0.3214122), wk =   0.0007513
        k(  312) = (  -0.3856946   0.6428243  -0.2571297), wk =   0.0007513
        k(  313) = (  -0.4499770   0.7071068  -0.1928473), wk =   0.0007513
        k(  314) = (  -0.5142595   0.7713892  -0.1285649), wk =   0.0007513
        k(  315) = (   0.1285649   0.1285649  -0.7713892), wk =   0.0007513
        k(  316) = (   0.0642824   0.1928473  -0.7071068), wk =   0.0007513
        k(  317) = (  -0.0000000   0.2571297  -0.6428243), wk =   0.0007513
        k(  318) = (  -0.0642824   0.3214122  -0.5785419), wk =   0.0007513
        k(  319) = (  -0.1285649   0.3856946  -0.5142595), wk =   0.0007513
        k(  320) = (  -0.1285649   0.3856946  -0.3856946), wk =   0.0007513
        k(  321) = (  -0.1928473   0.4499770  -0.3214122), wk =   0.0007513
        k(  322) = (  -0.2571297   0.5142595  -0.2571297), wk =   0.0007513
        k(  323) = (  -0.3214122   0.5785419  -0.1928473), wk =   0.0007513
        k(  324) = (  -0.3856946   0.6428243  -0.1285649), wk =   0.0007513
        k(  325) = (  -0.4499770   0.7071068  -0.0642824), wk =   0.0007513
        k(  326) = (   0.1928473   0.0642824  -0.7071068), wk =   0.0007513
        k(  327) = (   0.1285649   0.1285649  -0.6428243), wk =   0.0007513
        k(  328) = (   0.0642824   0.1928473  -0.5785419), wk =   0.0007513
        k(  329) = (  -0.0000000   0.2571297  -0.5142595), wk =   0.0007513
        k(  330) = (  -0.0642824   0.3214122  -0.4499770), wk =   0.0007513
        k(  331) = (  -0.0642824   0.3214122  -0.3214122), wk =   0.0007513
        k(  332) = (  -0.1285649   0.3856946  -0.2571297), wk =   0.0007513
        k(  333) = (  -0.1928473   0.4499770  -0.1928473), wk =   0.0007513
        k(  334) = (  -0.2571297   0.5142595  -0.1285649), wk =   0.0007513
        k(  335) = (  -0.3214122   0.5785419  -0.0642824), wk =   0.0007513
        k(  336) = (  -0.3856946   0.6428243   0.0000000), wk =   0.0007513
        k(  337) = (   0.2571297  -0.0000000  -0.6428243), wk =   0.0007513
        k(  338) = (   0.1928473   0.0642824  -0.5785419), wk =   0.0007513
        k(  339) = (   0.1285649   0.1285649  -0.5142595), wk =   0.0007513
        k(  340) = (   0.0642824   0.1928473  -0.4499770), wk =   0.0007513
        k(  341) = (   0.0000000   0.2571297  -0.3856946), wk =   0.0007513
        k(  342) = (   0.0000000   0.2571297  -0.2571297), wk =   0.0007513
        k(  343) = (  -0.0642824   0.3214122  -0.1928473), wk =   0.0007513
        k(  344) = (  -0.1285649   0.3856946  -0.1285649), wk =   0.0007513
        k(  345) = (  -0.1928473   0.4499770  -0.0642824), wk =   0.0007513
        k(  346) = (  -0.2571297   0.5142595   0.0000000), wk =   0.0007513
        k(  347) = (  -0.3214122   0.5785419   0.0642824), wk =   0.0007513
        k(  348) = (   0.3214122  -0.0642824  -0.5785419), wk =   0.0007513
        k(  349) = (   0.2571297   0.0000000  -0.5142595), wk =   0.0007513
        k(  350) = (   0.1928473   0.0642824  -0.4499770), wk =   0.0007513
        k(  351) = (   0.1285649   0.1285649  -0.3856946), wk =   0.0007513
        k(  352) = (   0.0642824   0.1928473  -0.3214122), wk =   0.0007513
        k(  353) = (   0.0642824   0.1928473  -0.1928473), wk =   0.0007513
        k(  354) = (  -0.0000000   0.2571297  -0.1285649), wk =   0.0007513
        k(  355) = (  -0.0642824   0.3214122  -0.0642824), wk =   0.0007513
        k(  356) = (  -0.1285649   0.3856946  -0.0000000), wk =   0.0007513
        k(  357) = (  -0.1928473   0.4499770   0.0642824), wk =   0.0007513
        k(  358) = (  -0.2571297   0.5142595   0.1285649), wk =   0.0007513
        k(  359) = (   0.3856946  -0.1285649  -0.5142595), wk =   0.0007513
        k(  360) = (   0.3214122  -0.0642824  -0.4499770), wk =   0.0007513
        k(  361) = (   0.2571297   0.0000000  -0.3856946), wk =   0.0007513
        k(  362) = (   0.1928473   0.0642824  -0.3214122), wk =   0.0007513
        k(  363) = (   0.1285649   0.1285649  -0.2571297), wk =   0.0007513
        k(  364) = (   0.1928473   0.1928473  -0.1928473), wk =   0.0007513
        k(  365) = (   0.1285649   0.2571297  -0.1285649), wk =   0.0007513
        k(  366) = (   0.0642824   0.3214122  -0.0642824), wk =   0.0007513
        k(  367) = (   0.0000000   0.3856946   0.0000000), wk =   0.0007513
        k(  368) = (  -0.0642824   0.4499770   0.0642824), wk =   0.0007513
        k(  369) = (  -0.1285649   0.5142595   0.1285649), wk =   0.0007513
        k(  370) = (   0.5142595  -0.1285649  -0.5142595), wk =   0.0007513
        k(  371) = (   0.4499770  -0.0642824  -0.4499770), wk =   0.0007513
        k(  372) = (   0.3856946   0.0000000  -0.3856946), wk =   0.0007513
        k(  373) = (   0.3214122   0.0642824  -0.3214122), wk =   0.0007513
        k(  374) = (   0.2571297   0.1285649  -0.2571297), wk =   0.0007513
        k(  375) = (   0.2571297   0.1285649  -0.1285649), wk =   0.0007513
        k(  376) = (   0.1928473   0.1928473  -0.0642824), wk =   0.0007513
        k(  377) = (   0.1285649   0.2571297   0.0000000), wk =   0.0007513
        k(  378) = (   0.0642824   0.3214122   0.0642824), wk =   0.0007513
        k(  379) = (   0.0000000   0.3856946   0.1285649), wk =   0.0007513
        k(  380) = (  -0.0642824   0.4499770   0.1928473), wk =   0.0007513
        k(  381) = (   0.5785419  -0.1928473  -0.4499770), wk =   0.0007513
        k(  382) = (   0.5142595  -0.1285649  -0.3856946), wk =   0.0007513
        k(  383) = (   0.4499770  -0.0642824  -0.3214122), wk =   0.0007513
        k(  384) = (   0.3856946   0.0000000  -0.2571297), wk =   0.0007513
        k(  385) = (   0.3214122   0.0642824  -0.1928473), wk =   0.0007513
        k(  386) = (   0.3214122   0.0642824  -0.0642824), wk =   0.0007513
        k(  387) = (   0.2571297   0.1285649   0.0000000), wk =   0.0007513
        k(  388) = (   0.1928473   0.1928473   0.0642824), wk =   0.0007513
        k(  389) = (   0.1285649   0.2571297   0.1285649), wk =   0.0007513
        k(  390) = (   0.0642824   0.3214122   0.1928473), wk =   0.0007513
        k(  391) = (   0.0000000   0.3856946   0.2571297), wk =   0.0007513
        k(  392) = (   0.6428243  -0.2571297  -0.3856946), wk =   0.0007513
        k(  393) = (   0.5785419  -0.1928473  -0.3214122), wk =   0.0007513
        k(  394) = (   0.5142595  -0.1285649  -0.2571297), wk =   0.0007513
        k(  395) = (   0.4499770  -0.0642824  -0.1928473), wk =   0.0007513
        k(  396) = (   0.3856946  -0.0000000  -0.1285649), wk =   0.0007513
        k(  397) = (   0.3856946   0.0000000   0.0000000), wk =   0.0007513
        k(  398) = (   0.3214122   0.0642824   0.0642824), wk =   0.0007513
        k(  399) = (   0.2571297   0.1285649   0.1285649), wk =   0.0007513
        k(  400) = (   0.1928473   0.1928473   0.1928473), wk =   0.0007513
        k(  401) = (   0.1285649   0.2571297   0.2571297), wk =   0.0007513
        k(  402) = (   0.0642824   0.3214122   0.3214122), wk =   0.0007513
        k(  403) = (   0.7071068  -0.3214122  -0.3214122), wk =   0.0007513
        k(  404) = (   0.6428243  -0.2571297  -0.2571297), wk =   0.0007513
        k(  405) = (   0.5785419  -0.1928473  -0.1928473), wk =   0.0007513
        k(  406) = (   0.5142595  -0.1285649  -0.1285649), wk =   0.0007513
        k(  407) = (   0.4499770  -0.0642824  -0.0642824), wk =   0.0007513
        k(  408) = (   0.4499770  -0.0642824   0.0642824), wk =   0.0007513
        k(  409) = (   0.3856946  -0.0000000   0.1285649), wk =   0.0007513
        k(  410) = (   0.3214122   0.0642824   0.1928473), wk =   0.0007513
        k(  411) = (   0.2571297   0.1285649   0.2571297), wk =   0.0007513
        k(  412) = (   0.1928473   0.1928473   0.3214122), wk =   0.0007513
        k(  413) = (   0.1285649   0.2571297   0.3856946), wk =   0.0007513
        k(  414) = (   0.7713892  -0.3856946  -0.2571297), wk =   0.0007513
        k(  415) = (   0.7071068  -0.3214122  -0.1928473), wk =   0.0007513
        k(  416) = (   0.6428243  -0.2571297  -0.1285649), wk =   0.0007513
        k(  417) = (   0.5785419  -0.1928473  -0.0642824), wk =   0.0007513
        k(  418) = (   0.5142595  -0.1285649   0.0000000), wk =   0.0007513
        k(  419) = (   0.5142595  -0.1285649   0.1285649), wk =   0.0007513
        k(  420) = (   0.4499770  -0.0642824   0.1928473), wk =   0.0007513
        k(  421) = (   0.3856946  -0.0000000   0.2571297), wk =   0.0007513
        k(  422) = (   0.3214122   0.0642824   0.3214122), wk =   0.0007513
        k(  423) = (   0.2571297   0.1285649   0.3856946), wk =   0.0007513
        k(  424) = (   0.1928473   0.1928473   0.4499770), wk =   0.0007513
        k(  425) = (   0.8356717  -0.4499770  -0.1928473), wk =   0.0007513
        k(  426) = (   0.7713892  -0.3856946  -0.1285649), wk =   0.0007513
        k(  427) = (   0.7071068  -0.3214122  -0.0642824), wk =   0.0007513
        k(  428) = (   0.6428243  -0.2571297   0.0000000), wk =   0.0007513
        k(  429) = (   0.5785419  -0.1928473   0.0642824), wk =   0.0007513
        k(  430) = (  -0.1285649   0.5142595  -0.5142595), wk =   0.0007513
        k(  431) = (  -0.1928473   0.5785419  -0.4499770), wk =   0.0007513
        k(  432) = (  -0.2571297   0.6428243  -0.3856946), wk =   0.0007513
        k(  433) = (  -0.3214122   0.7071068  -0.3214122), wk =   0.0007513
        k(  434) = (  -0.3856946   0.7713892  -0.2571297), wk =   0.0007513
        k(  435) = (  -0.4499770   0.8356717  -0.1928473), wk =   0.0007513
        k(  436) = (   0.1928473   0.1928473  -0.8356717), wk =   0.0007513
        k(  437) = (   0.1285649   0.2571297  -0.7713892), wk =   0.0007513
        k(  438) = (   0.0642824   0.3214122  -0.7071068), wk =   0.0007513
        k(  439) = (  -0.0000000   0.3856946  -0.6428243), wk =   0.0007513
        k(  440) = (  -0.0642824   0.4499770  -0.5785419), wk =   0.0007513
        k(  441) = (  -0.0642824   0.4499770  -0.4499770), wk =   0.0007513
        k(  442) = (  -0.1285649   0.5142595  -0.3856946), wk =   0.0007513
        k(  443) = (  -0.1928473   0.5785419  -0.3214122), wk =   0.0007513
        k(  444) = (  -0.2571297   0.6428243  -0.2571297), wk =   0.0007513
        k(  445) = (  -0.3214122   0.7071068  -0.1928473), wk =   0.0007513
        k(  446) = (  -0.3856946   0.7713892  -0.1285649), wk =   0.0007513
        k(  447) = (   0.2571297   0.1285649  -0.7713892), wk =   0.0007513
        k(  448) = (   0.1928473   0.1928473  -0.7071068), wk =   0.0007513
        k(  449) = (   0.1285649   0.2571297  -0.6428243), wk =   0.0007513
        k(  450) = (   0.0642824   0.3214122  -0.5785419), wk =   0.0007513
        k(  451) = (   0.0000000   0.3856946  -0.5142595), wk =   0.0007513
        k(  452) = (   0.0000000   0.3856946  -0.3856946), wk =   0.0007513
        k(  453) = (  -0.0642824   0.4499770  -0.3214122), wk =   0.0007513
        k(  454) = (  -0.1285649   0.5142595  -0.2571297), wk =   0.0007513
        k(  455) = (  -0.1928473   0.5785419  -0.1928473), wk =   0.0007513
        k(  456) = (  -0.2571297   0.6428243  -0.1285649), wk =   0.0007513
        k(  457) = (  -0.3214122   0.7071068  -0.0642824), wk =   0.0007513
        k(  458) = (   0.3214122   0.0642824  -0.7071068), wk =   0.0007513
        k(  459) = (   0.2571297   0.1285649  -0.6428243), wk =   0.0007513
        k(  460) = (   0.1928473   0.1928473  -0.5785419), wk =   0.0007513
        k(  461) = (   0.1285649   0.2571297  -0.5142595), wk =   0.0007513
        k(  462) = (   0.0642824   0.3214122  -0.4499770), wk =   0.0007513
        k(  463) = (   0.0642824   0.3214122  -0.3214122), wk =   0.0007513
        k(  464) = (   0.0000000   0.3856946  -0.2571297), wk =   0.0007513
        k(  465) = (  -0.0642824   0.4499770  -0.1928473), wk =   0.0007513
        k(  466) = (  -0.1285649   0.5142595  -0.1285649), wk =   0.0007513
        k(  467) = (  -0.1928473   0.5785419  -0.0642824), wk =   0.0007513
        k(  468) = (  -0.2571297   0.6428243   0.0000000), wk =   0.0007513
        k(  469) = (   0.3856946  -0.0000000  -0.6428243), wk =   0.0007513
        k(  470) = (   0.3214122   0.0642824  -0.5785419), wk =   0.0007513
        k(  471) = (   0.2571297   0.1285649  -0.5142595), wk =   0.0007513
        k(  472) = (   0.1928473   0.1928473  -0.4499770), wk =   0.0007513
        k(  473) = (   0.1285649   0.2571297  -0.3856946), wk =   0.0007513
        k(  474) = (   0.1285649   0.2571297  -0.2571297), wk =   0.0007513
        k(  475) = (   0.0642824   0.3214122  -0.1928473), wk =   0.0007513
        k(  476) = (  -0.0000000   0.3856946  -0.1285649), wk =   0.0007513
        k(  477) = (  -0.0642824   0.4499770  -0.0642824), wk =   0.0007513
        k(  478) = (  -0.1285649   0.5142595   0.0000000), wk =   0.0007513
        k(  479) = (  -0.1928473   0.5785419   0.0642824), wk =   0.0007513
        k(  480) = (   0.4499770  -0.0642824  -0.5785419), wk =   0.0007513
        k(  481) = (   0.3856946   0.0000000  -0.5142595), wk =   0.0007513
        k(  482) = (   0.3214122   0.0642824  -0.4499770), wk =   0.0007513
        k(  483) = (   0.2571297   0.1285649  -0.3856946), wk =   0.0007513
        k(  484) = (   0.1928473   0.1928473  -0.3214122), wk =   0.0007513
        k(  485) = (   0.2571297   0.2571297  -0.2571297), wk =   0.0007513
        k(  486) = (   0.1928473   0.3214122  -0.1928473), wk =   0.0007513
        k(  487) = (   0.1285649   0.3856946  -0.1285649), wk =   0.0007513
        k(  488) = (   0.0642824   0.4499770  -0.0642824), wk =   0.0007513
        k(  489) = (   0.0000000   0.5142595   0.0000000), wk =   0.0007513
        k(  490) = (  -0.0642824   0.5785419   0.0642824), wk =   0.0007513
        k(  491) = (   0.5785419  -0.0642824  -0.5785419), wk =   0.0007513
        k(  492) = (   0.5142595   0.0000000  -0.5142595), wk =   0.0007513
        k(  493) = (   0.4499770   0.0642824  -0.4499770), wk =   0.0007513
        k(  494) = (   0.3856946   0.1285649  -0.3856946), wk =   0.0007513
        k(  495) = (   0.3214122   0.1928473  -0.3214122), wk =   0.0007513
        k(  496) = (   0.3214122   0.1928473  -0.1928473), wk =   0.0007513
        k(  497) = (   0.2571297   0.2571297  -0.1285649), wk =   0.0007513
        k(  498) = (   0.1928473   0.3214122  -0.0642824), wk =   0.0007513
        k(  499) = (   0.1285649   0.3856946  -0.0000000), wk =   0.0007513
        k(  500) = (   0.0642824   0.4499770   0.0642824), wk =   0.0007513
        k(  501) = (   0.0000000   0.5142595   0.1285649), wk =   0.0007513
        k(  502) = (   0.6428243  -0.1285649  -0.5142595), wk =   0.0007513
        k(  503) = (   0.5785419  -0.0642824  -0.4499770), wk =   0.0007513
        k(  504) = (   0.5142595   0.0000000  -0.3856946), wk =   0.0007513
        k(  505) = (   0.4499770   0.0642824  -0.3214122), wk =   0.0007513
        k(  506) = (   0.3856946   0.1285649  -0.2571297), wk =   0.0007513
        k(  507) = (   0.3856946   0.1285649  -0.1285649), wk =   0.0007513
        k(  508) = (   0.3214122   0.1928473  -0.0642824), wk =   0.0007513
        k(  509) = (   0.2571297   0.2571297   0.0000000), wk =   0.0007513
        k(  510) = (   0.1928473   0.3214122   0.0642824), wk =   0.0007513
        k(  511) = (   0.1285649   0.3856946   0.1285649), wk =   0.0007513
        k(  512) = (   0.0642824   0.4499770   0.1928473), wk =   0.0007513
        k(  513) = (   0.7071068  -0.1928473  -0.4499770), wk =   0.0007513
        k(  514) = (   0.6428243  -0.1285649  -0.3856946), wk =   0.0007513
        k(  515) = (   0.5785419  -0.0642824  -0.3214122), wk =   0.0007513
        k(  516) = (   0.5142595   0.0000000  -0.2571297), wk =   0.0007513
        k(  517) = (   0.4499770   0.0642824  -0.1928473), wk =   0.0007513
        k(  518) = (   0.4499770   0.0642824  -0.0642824), wk =   0.0007513
        k(  519) = (   0.3856946   0.1285649  -0.0000000), wk =   0.0007513
        k(  520) = (   0.3214122   0.1928473   0.0642824), wk =   0.0007513
        k(  521) = (   0.2571297   0.2571297   0.1285649), wk =   0.0007513
        k(  522) = (   0.1928473   0.3214122   0.1928473), wk =   0.0007513
        k(  523) = (   0.1285649   0.3856946   0.2571297), wk =   0.0007513
        k(  524) = (   0.7713892  -0.2571297  -0.3856946), wk =   0.0007513
        k(  525) = (   0.7071068  -0.1928473  -0.3214122), wk =   0.0007513
        k(  526) = (   0.6428243  -0.1285649  -0.2571297), wk =   0.0007513
        k(  527) = (   0.5785419  -0.0642824  -0.1928473), wk =   0.0007513
        k(  528) = (   0.5142595   0.0000000  -0.1285649), wk =   0.0007513
        k(  529) = (   0.5142595   0.0000000   0.0000000), wk =   0.0007513
        k(  530) = (   0.4499770   0.0642824   0.0642824), wk =   0.0007513
        k(  531) = (   0.3856946   0.1285649   0.1285649), wk =   0.0007513
        k(  532) = (   0.3214122   0.1928473   0.1928473), wk =   0.0007513
        k(  533) = (   0.2571297   0.2571297   0.2571297), wk =   0.0007513
        k(  534) = (   0.1928473   0.3214122   0.3214122), wk =   0.0007513
        k(  535) = (   0.8356717  -0.3214122  -0.3214122), wk =   0.0007513
        k(  536) = (   0.7713892  -0.2571297  -0.2571297), wk =   0.0007513
        k(  537) = (   0.7071068  -0.1928473  -0.1928473), wk =   0.0007513
        k(  538) = (   0.6428243  -0.1285649  -0.1285649), wk =   0.0007513
        k(  539) = (   0.5785419  -0.0642824  -0.0642824), wk =   0.0007513
        k(  540) = (   0.5785419  -0.0642824   0.0642824), wk =   0.0007513
        k(  541) = (   0.5142595   0.0000000   0.1285649), wk =   0.0007513
        k(  542) = (   0.4499770   0.0642824   0.1928473), wk =   0.0007513
        k(  543) = (   0.3856946   0.1285649   0.2571297), wk =   0.0007513
        k(  544) = (   0.3214122   0.1928473   0.3214122), wk =   0.0007513
        k(  545) = (   0.2571297   0.2571297   0.3856946), wk =   0.0007513
        k(  546) = (   0.8999541  -0.3856946  -0.2571297), wk =   0.0007513
        k(  547) = (   0.8356717  -0.3214122  -0.1928473), wk =   0.0007513
        k(  548) = (   0.7713892  -0.2571297  -0.1285649), wk =   0.0007513
        k(  549) = (   0.7071068  -0.1928473  -0.0642824), wk =   0.0007513
        k(  550) = (   0.6428243  -0.1285649  -0.0000000), wk =   0.0007513
        k(  551) = (  -0.0642824   0.5785419  -0.5785419), wk =   0.0007513
        k(  552) = (  -0.1285649   0.6428243  -0.5142595), wk =   0.0007513
        k(  553) = (  -0.1928473   0.7071068  -0.4499770), wk =   0.0007513
        k(  554) = (  -0.2571297   0.7713892  -0.3856946), wk =   0.0007513
        k(  555) = (  -0.3214122   0.8356717  -0.3214122), wk =   0.0007513
        k(  556) = (  -0.3856946   0.8999541  -0.2571297), wk =   0.0007513
        k(  557) = (   0.2571297   0.2571297  -0.8999541), wk =   0.0007513
        k(  558) = (   0.1928473   0.3214122  -0.8356717), wk =   0.0007513
        k(  559) = (   0.1285649   0.3856946  -0.7713892), wk =   0.0007513
        k(  560) = (   0.0642824   0.4499770  -0.7071068), wk =   0.0007513
        k(  561) = (  -0.0000000   0.5142595  -0.6428243), wk =   0.0007513
        k(  562) = (   0.0000000   0.5142595  -0.5142595), wk =   0.0007513
        k(  563) = (  -0.0642824   0.5785419  -0.4499770), wk =   0.0007513
        k(  564) = (  -0.1285649   0.6428243  -0.3856946), wk =   0.0007513
        k(  565) = (  -0.1928473   0.7071068  -0.3214122), wk =   0.0007513
        k(  566) = (  -0.2571297   0.7713892  -0.2571297), wk =   0.0007513
        k(  567) = (  -0.3214122   0.8356717  -0.1928473), wk =   0.0007513
        k(  568) = (   0.3214122   0.1928473  -0.8356717), wk =   0.0007513
        k(  569) = (   0.2571297   0.2571297  -0.7713892), wk =   0.0007513
        k(  570) = (   0.1928473   0.3214122  -0.7071068), wk =   0.0007513
        k(  571) = (   0.1285649   0.3856946  -0.6428243), wk =   0.0007513
        k(  572) = (   0.0642824   0.4499770  -0.5785419), wk =   0.0007513
        k(  573) = (   0.0642824   0.4499770  -0.4499770), wk =   0.0007513
        k(  574) = (   0.0000000   0.5142595  -0.3856946), wk =   0.0007513
        k(  575) = (  -0.0642824   0.5785419  -0.3214122), wk =   0.0007513
        k(  576) = (  -0.1285649   0.6428243  -0.2571297), wk =   0.0007513
        k(  577) = (  -0.1928473   0.7071068  -0.1928473), wk =   0.0007513
        k(  578) = (  -0.2571297   0.7713892  -0.1285649), wk =   0.0007513
        k(  579) = (   0.3856946   0.1285649  -0.7713892), wk =   0.0007513
        k(  580) = (   0.3214122   0.1928473  -0.7071068), wk =   0.0007513
        k(  581) = (   0.2571297   0.2571297  -0.6428243), wk =   0.0007513
        k(  582) = (   0.1928473   0.3214122  -0.5785419), wk =   0.0007513
        k(  583) = (   0.1285649   0.3856946  -0.5142595), wk =   0.0007513
        k(  584) = (   0.1285649   0.3856946  -0.3856946), wk =   0.0007513
        k(  585) = (   0.0642824   0.4499770  -0.3214122), wk =   0.0007513
        k(  586) = (   0.0000000   0.5142595  -0.2571297), wk =   0.0007513
        k(  587) = (  -0.0642824   0.5785419  -0.1928473), wk =   0.0007513
        k(  588) = (  -0.1285649   0.6428243  -0.1285649), wk =   0.0007513
        k(  589) = (  -0.1928473   0.7071068  -0.0642824), wk =   0.0007513
        k(  590) = (   0.4499770   0.0642824  -0.7071068), wk =   0.0007513
        k(  591) = (   0.3856946   0.1285649  -0.6428243), wk =   0.0007513
        k(  592) = (   0.3214122   0.1928473  -0.5785419), wk =   0.0007513
        k(  593) = (   0.2571297   0.2571297  -0.5142595), wk =   0.0007513
        k(  594) = (   0.1928473   0.3214122  -0.4499770), wk =   0.0007513
        k(  595) = (   0.1928473   0.3214122  -0.3214122), wk =   0.0007513
        k(  596) = (   0.1285649   0.3856946  -0.2571297), wk =   0.0007513
        k(  597) = (   0.0642824   0.4499770  -0.1928473), wk =   0.0007513
        k(  598) = (   0.0000000   0.5142595  -0.1285649), wk =   0.0007513
        k(  599) = (  -0.0642824   0.5785419  -0.0642824), wk =   0.0007513
        k(  600) = (  -0.1285649   0.6428243   0.0000000), wk =   0.0007513
        k(  601) = (   0.5142595  -0.0000000  -0.6428243), wk =   0.0007513
        k(  602) = (   0.4499770   0.0642824  -0.5785419), wk =   0.0007513
        k(  603) = (   0.3856946   0.1285649  -0.5142595), wk =   0.0007513
        k(  604) = (   0.3214122   0.1928473  -0.4499770), wk =   0.0007513
        k(  605) = (   0.2571297   0.2571297  -0.3856946), wk =   0.0007513
        k(  606) = (   0.3214122   0.3214122  -0.3214122), wk =   0.0007513
        k(  607) = (   0.2571297   0.3856946  -0.2571297), wk =   0.0007513
        k(  608) = (   0.1928473   0.4499770  -0.1928473), wk =   0.0007513
        k(  609) = (   0.1285649   0.5142595  -0.1285649), wk =   0.0007513
        k(  610) = (   0.0642824   0.5785419  -0.0642824), wk =   0.0007513
        k(  611) = (   0.0000000   0.6428243   0.0000000), wk =   0.0007513
        k(  612) = (   0.6428243  -0.0000000  -0.6428243), wk =   0.0007513
        k(  613) = (   0.5785419   0.0642824  -0.5785419), wk =   0.0007513
        k(  614) = (   0.5142595   0.1285649  -0.5142595), wk =   0.0007513
        k(  615) = (   0.4499770   0.1928473  -0.4499770), wk =   0.0007513
        k(  616) = (   0.3856946   0.2571297  -0.3856946), wk =   0.0007513
        k(  617) = (   0.3856946   0.2571297  -0.2571297), wk =   0.0007513
        k(  618) = (   0.3214122   0.3214122  -0.1928473), wk =   0.0007513
        k(  619) = (   0.2571297   0.3856946  -0.1285649), wk =   0.0007513
        k(  620) = (   0.1928473   0.4499770  -0.0642824), wk =   0.0007513
        k(  621) = (   0.1285649   0.5142595   0.0000000), wk =   0.0007513
        k(  622) = (   0.0642824   0.5785419   0.0642824), wk =   0.0007513
        k(  623) = (   0.7071068  -0.0642824  -0.5785419), wk =   0.0007513
        k(  624) = (   0.6428243   0.0000000  -0.5142595), wk =   0.0007513
        k(  625) = (   0.5785419   0.0642824  -0.4499770), wk =   0.0007513
        k(  626) = (   0.5142595   0.1285649  -0.3856946), wk =   0.0007513
        k(  627) = (   0.4499770   0.1928473  -0.3214122), wk =   0.0007513
        k(  628) = (   0.4499770   0.1928473  -0.1928473), wk =   0.0007513
        k(  629) = (   0.3856946   0.2571297  -0.1285649), wk =   0.0007513
        k(  630) = (   0.3214122   0.3214122  -0.0642824), wk =   0.0007513
        k(  631) = (   0.2571297   0.3856946  -0.0000000), wk =   0.0007513
        k(  632) = (   0.1928473   0.4499770   0.0642824), wk =   0.0007513
        k(  633) = (   0.1285649   0.5142595   0.1285649), wk =   0.0007513
        k(  634) = (   0.7713892  -0.1285649  -0.5142595), wk =   0.0007513
        k(  635) = (   0.7071068  -0.0642824  -0.4499770), wk =   0.0007513
        k(  636) = (   0.6428243   0.0000000  -0.3856946), wk =   0.0007513
        k(  637) = (   0.5785419   0.0642824  -0.3214122), wk =   0.0007513
        k(  638) = (   0.5142595   0.1285649  -0.2571297), wk =   0.0007513
        k(  639) = (   0.5142595   0.1285649  -0.1285649), wk =   0.0007513
        k(  640) = (   0.4499770   0.1928473  -0.0642824), wk =   0.0007513
        k(  641) = (   0.3856946   0.2571297  -0.0000000), wk =   0.0007513
        k(  642) = (   0.3214122   0.3214122   0.0642824), wk =   0.0007513
        k(  643) = (   0.2571297   0.3856946   0.1285649), wk =   0.0007513
        k(  644) = (   0.1928473   0.4499770   0.1928473), wk =   0.0007513
        k(  645) = (   0.8356717  -0.1928473  -0.4499770), wk =   0.0007513
        k(  646) = (   0.7713892  -0.1285649  -0.3856946), wk =   0.0007513
        k(  647) = (   0.7071068  -0.0642824  -0.3214122), wk =   0.0007513
        k(  648) = (   0.6428243   0.0000000  -0.2571297), wk =   0.0007513
        k(  649) = (   0.5785419   0.0642824  -0.1928473), wk =   0.0007513
        k(  650) = (   0.5785419   0.0642824  -0.0642824), wk =   0.0007513
        k(  651) = (   0.5142595   0.1285649   0.0000000), wk =   0.0007513
        k(  652) = (   0.4499770   0.1928473   0.0642824), wk =   0.0007513
        k(  653) = (   0.3856946   0.2571297   0.1285649), wk =   0.0007513
        k(  654) = (   0.3214122   0.3214122   0.1928473), wk =   0.0007513
        k(  655) = (   0.2571297   0.3856946   0.2571297), wk =   0.0007513
        k(  656) = (   0.8999541  -0.2571297  -0.3856946), wk =   0.0007513
        k(  657) = (   0.8356717  -0.1928473  -0.3214122), wk =   0.0007513
        k(  658) = (   0.7713892  -0.1285649  -0.2571297), wk =   0.0007513
        k(  659) = (   0.7071068  -0.0642824  -0.1928473), wk =   0.0007513
        k(  660) = (   0.6428243  -0.0000000  -0.1285649), wk =   0.0007513
        k(  661) = (   0.6428243   0.0000000   0.0000000), wk =   0.0007513
        k(  662) = (   0.5785419   0.0642824   0.0642824), wk =   0.0007513
        k(  663) = (   0.5142595   0.1285649   0.1285649), wk =   0.0007513
        k(  664) = (   0.4499770   0.1928473   0.1928473), wk =   0.0007513
        k(  665) = (   0.3856946   0.2571297   0.2571297), wk =   0.0007513
        k(  666) = (   0.3214122   0.3214122   0.3214122), wk =   0.0007513
        k(  667) = (   0.9642365  -0.3214122  -0.3214122), wk =   0.0007513
        k(  668) = (   0.8999541  -0.2571297  -0.2571297), wk =   0.0007513
        k(  669) = (   0.8356717  -0.1928473  -0.1928473), wk =   0.0007513
        k(  670) = (   0.7713892  -0.1285649  -0.1285649), wk =   0.0007513
        k(  671) = (   0.7071068  -0.0642824  -0.0642824), wk =   0.0007513
        k(  672) = (  -0.0000000   0.6428243  -0.6428243), wk =   0.0007513
        k(  673) = (  -0.0642824   0.7071068  -0.5785419), wk =   0.0007513
        k(  674) = (  -0.1285649   0.7713892  -0.5142595), wk =   0.0007513
        k(  675) = (  -0.1928473   0.8356717  -0.4499770), wk =   0.0007513
        k(  676) = (  -0.2571297   0.8999541  -0.3856946), wk =   0.0007513
        k(  677) = (  -0.3214122   0.9642365  -0.3214122), wk =   0.0007513
        k(  678) = (   0.3214122   0.3214122  -0.9642365), wk =   0.0007513
        k(  679) = (   0.2571297   0.3856946  -0.8999541), wk =   0.0007513
        k(  680) = (   0.1928473   0.4499770  -0.8356717), wk =   0.0007513
        k(  681) = (   0.1285649   0.5142595  -0.7713892), wk =   0.0007513
        k(  682) = (   0.0642824   0.5785419  -0.7071068), wk =   0.0007513
        k(  683) = (   0.0642824   0.5785419  -0.5785419), wk =   0.0007513
        k(  684) = (   0.0000000   0.6428243  -0.5142595), wk =   0.0007513
        k(  685) = (  -0.0642824   0.7071068  -0.4499770), wk =   0.0007513
        k(  686) = (  -0.1285649   0.7713892  -0.3856946), wk =   0.0007513
        k(  687) = (  -0.1928473   0.8356717  -0.3214122), wk =   0.0007513
        k(  688) = (  -0.2571297   0.8999541  -0.2571297), wk =   0.0007513
        k(  689) = (   0.3856946   0.2571297  -0.8999541), wk =   0.0007513
        k(  690) = (   0.3214122   0.3214122  -0.8356717), wk =   0.0007513
        k(  691) = (   0.2571297   0.3856946  -0.7713892), wk =   0.0007513
        k(  692) = (   0.1928473   0.4499770  -0.7071068), wk =   0.0007513
        k(  693) = (   0.1285649   0.5142595  -0.6428243), wk =   0.0007513
        k(  694) = (   0.1285649   0.5142595  -0.5142595), wk =   0.0007513
        k(  695) = (   0.0642824   0.5785419  -0.4499770), wk =   0.0007513
        k(  696) = (   0.0000000   0.6428243  -0.3856946), wk =   0.0007513
        k(  697) = (  -0.0642824   0.7071068  -0.3214122), wk =   0.0007513
        k(  698) = (  -0.1285649   0.7713892  -0.2571297), wk =   0.0007513
        k(  699) = (  -0.1928473   0.8356717  -0.1928473), wk =   0.0007513
        k(  700) = (   0.4499770   0.1928473  -0.8356717), wk =   0.0007513
        k(  701) = (   0.3856946   0.2571297  -0.7713892), wk =   0.0007513
        k(  702) = (   0.3214122   0.3214122  -0.7071068), wk =   0.0007513
        k(  703) = (   0.2571297   0.3856946  -0.6428243), wk =   0.0007513
        k(  704) = (   0.1928473   0.4499770  -0.5785419), wk =   0.0007513
        k(  705) = (   0.1928473   0.4499770  -0.4499770), wk =   0.0007513
        k(  706) = (   0.1285649   0.5142595  -0.3856946), wk =   0.0007513
        k(  707) = (   0.0642824   0.5785419  -0.3214122), wk =   0.0007513
        k(  708) = (   0.0000000   0.6428243  -0.2571297), wk =   0.0007513
        k(  709) = (  -0.0642824   0.7071068  -0.1928473), wk =   0.0007513
        k(  710) = (  -0.1285649   0.7713892  -0.1285649), wk =   0.0007513
        k(  711) = (   0.5142595   0.1285649  -0.7713892), wk =   0.0007513
        k(  712) = (   0.4499770   0.1928473  -0.7071068), wk =   0.0007513
        k(  713) = (   0.3856946   0.2571297  -0.6428243), wk =   0.0007513
        k(  714) = (   0.3214122   0.3214122  -0.5785419), wk =   0.0007513
        k(  715) = (   0.2571297   0.3856946  -0.5142595), wk =   0.0007513
        k(  716) = (   0.2571297   0.3856946  -0.3856946), wk =   0.0007513
        k(  717) = (   0.1928473   0.4499770  -0.3214122), wk =   0.0007513
        k(  718) = (   0.1285649   0.5142595  -0.2571297), wk =   0.0007513
        k(  719) = (   0.0642824   0.5785419  -0.1928473), wk =   0.0007513
        k(  720) = (   0.0000000   0.6428243  -0.1285649), wk =   0.0007513
        k(  721) = (  -0.0642824   0.7071068  -0.0642824), wk =   0.0007513
        k(  722) = (   0.5785419   0.0642824  -0.7071068), wk =   0.0007513
        k(  723) = (   0.5142595   0.1285649  -0.6428243), wk =   0.0007513
        k(  724) = (   0.4499770   0.1928473  -0.5785419), wk =   0.0007513
        k(  725) = (   0.3856946   0.2571297  -0.5142595), wk =   0.0007513
        k(  726) = (   0.3214122   0.3214122  -0.4499770), wk =   0.0007513
        k(  727) = (  -0.3214122  -0.3214122   0.3214122), wk =   0.0007513
        k(  728) = (  -0.3856946  -0.2571297   0.3856946), wk =   0.0007513
        k(  729) = (  -0.4499770  -0.1928473   0.4499770), wk =   0.0007513
        k(  730) = (  -0.5142595  -0.1285649   0.5142595), wk =   0.0007513
        k(  731) = (  -0.5785419  -0.0642824   0.5785419), wk =   0.0007513
        k(  732) = (  -0.6428243  -0.0000000   0.6428243), wk =   0.0007513
        k(  733) = (   0.0000000  -0.6428243   0.0000000), wk =   0.0007513
        k(  734) = (  -0.0642824  -0.5785419   0.0642824), wk =   0.0007513
        k(  735) = (  -0.1285649  -0.5142595   0.1285649), wk =   0.0007513
        k(  736) = (  -0.1928473  -0.4499770   0.1928473), wk =   0.0007513
        k(  737) = (  -0.2571297  -0.3856946   0.2571297), wk =   0.0007513
        k(  738) = (  -0.2571297  -0.3856946   0.3856946), wk =   0.0007513
        k(  739) = (  -0.3214122  -0.3214122   0.4499770), wk =   0.0007513
        k(  740) = (  -0.3856946  -0.2571297   0.5142595), wk =   0.0007513
        k(  741) = (  -0.4499770  -0.1928473   0.5785419), wk =   0.0007513
        k(  742) = (  -0.5142595  -0.1285649   0.6428243), wk =   0.0007513
        k(  743) = (  -0.5785419  -0.0642824   0.7071068), wk =   0.0007513
        k(  744) = (   0.0642824  -0.7071068   0.0642824), wk =   0.0007513
        k(  745) = (  -0.0000000  -0.6428243   0.1285649), wk =   0.0007513
        k(  746) = (  -0.0642824  -0.5785419   0.1928473), wk =   0.0007513
        k(  747) = (  -0.1285649  -0.5142595   0.2571297), wk =   0.0007513
        k(  748) = (  -0.1928473  -0.4499770   0.3214122), wk =   0.0007513
        k(  749) = (  -0.1928473  -0.4499770   0.4499770), wk =   0.0007513
        k(  750) = (  -0.2571297  -0.3856946   0.5142595), wk =   0.0007513
        k(  751) = (  -0.3214122  -0.3214122   0.5785419), wk =   0.0007513
        k(  752) = (  -0.3856946  -0.2571297   0.6428243), wk =   0.0007513
        k(  753) = (  -0.4499770  -0.1928473   0.7071068), wk =   0.0007513
        k(  754) = (  -0.5142595  -0.1285649   0.7713892), wk =   0.0007513
        k(  755) = (   0.1285649  -0.7713892   0.1285649), wk =   0.0007513
        k(  756) = (   0.0642824  -0.7071068   0.1928473), wk =   0.0007513
        k(  757) = (  -0.0000000  -0.6428243   0.2571297), wk =   0.0007513
        k(  758) = (  -0.0642824  -0.5785419   0.3214122), wk =   0.0007513
        k(  759) = (  -0.1285649  -0.5142595   0.3856946), wk =   0.0007513
        k(  760) = (  -0.1285649  -0.5142595   0.5142595), wk =   0.0007513
        k(  761) = (  -0.1928473  -0.4499770   0.5785419), wk =   0.0007513
        k(  762) = (  -0.2571297  -0.3856946   0.6428243), wk =   0.0007513
        k(  763) = (  -0.3214122  -0.3214122   0.7071068), wk =   0.0007513
        k(  764) = (  -0.3856946  -0.2571297   0.7713892), wk =   0.0007513
        k(  765) = (  -0.4499770  -0.1928473   0.8356717), wk =   0.0007513
        k(  766) = (   0.1928473  -0.8356717   0.1928473), wk =   0.0007513
        k(  767) = (   0.1285649  -0.7713892   0.2571297), wk =   0.0007513
        k(  768) = (   0.0642824  -0.7071068   0.3214122), wk =   0.0007513
        k(  769) = (  -0.0000000  -0.6428243   0.3856946), wk =   0.0007513
        k(  770) = (  -0.0642824  -0.5785419   0.4499770), wk =   0.0007513
        k(  771) = (  -0.0642824  -0.5785419   0.5785419), wk =   0.0007513
        k(  772) = (  -0.1285649  -0.5142595   0.6428243), wk =   0.0007513
        k(  773) = (  -0.1928473  -0.4499770   0.7071068), wk =   0.0007513
        k(  774) = (  -0.2571297  -0.3856946   0.7713892), wk =   0.0007513
        k(  775) = (  -0.3214122  -0.3214122   0.8356717), wk =   0.0007513
        k(  776) = (  -0.3856946  -0.2571297   0.8999541), wk =   0.0007513
        k(  777) = (   0.2571297  -0.8999541   0.2571297), wk =   0.0007513
        k(  778) = (   0.1928473  -0.8356717   0.3214122), wk =   0.0007513
        k(  779) = (   0.1285649  -0.7713892   0.3856946), wk =   0.0007513
        k(  780) = (   0.0642824  -0.7071068   0.4499770), wk =   0.0007513
        k(  781) = (  -0.0000000  -0.6428243   0.5142595), wk =   0.0007513
        k(  782) = (  -0.0000000  -0.6428243   0.6428243), wk =   0.0007513
        k(  783) = (  -0.0642824  -0.5785419   0.7071068), wk =   0.0007513
        k(  784) = (  -0.1285649  -0.5142595   0.7713892), wk =   0.0007513
        k(  785) = (  -0.1928473  -0.4499770   0.8356717), wk =   0.0007513
        k(  786) = (  -0.2571297  -0.3856946   0.8999541), wk =   0.0007513
        k(  787) = (  -0.3214122  -0.3214122   0.9642365), wk =   0.0007513
        k(  788) = (   0.3214122  -0.9642365   0.3214122), wk =   0.0007513
        k(  789) = (   0.2571297  -0.8999541   0.3856946), wk =   0.0007513
        k(  790) = (   0.1928473  -0.8356717   0.4499770), wk =   0.0007513
        k(  791) = (   0.1285649  -0.7713892   0.5142595), wk =   0.0007513
        k(  792) = (   0.0642824  -0.7071068   0.5785419), wk =   0.0007513
        k(  793) = (  -0.6428243   0.0000000   0.0000000), wk =   0.0007513
        k(  794) = (  -0.7071068   0.0642824   0.0642824), wk =   0.0007513
        k(  795) = (  -0.7713892   0.1285649   0.1285649), wk =   0.0007513
        k(  796) = (  -0.8356717   0.1928473   0.1928473), wk =   0.0007513
        k(  797) = (  -0.8999541   0.2571297   0.2571297), wk =   0.0007513
        k(  798) = (  -0.9642365   0.3214122   0.3214122), wk =   0.0007513
        k(  799) = (  -0.3214122  -0.3214122  -0.3214122), wk =   0.0007513
        k(  800) = (  -0.3856946  -0.2571297  -0.2571297), wk =   0.0007513
        k(  801) = (  -0.4499770  -0.1928473  -0.1928473), wk =   0.0007513
        k(  802) = (  -0.5142595  -0.1285649  -0.1285649), wk =   0.0007513
        k(  803) = (  -0.5785419  -0.0642824  -0.0642824), wk =   0.0007513
        k(  804) = (  -0.5785419  -0.0642824   0.0642824), wk =   0.0007513
        k(  805) = (  -0.6428243  -0.0000000   0.1285649), wk =   0.0007513
        k(  806) = (  -0.7071068   0.0642824   0.1928473), wk =   0.0007513
        k(  807) = (  -0.7713892   0.1285649   0.2571297), wk =   0.0007513
        k(  808) = (  -0.8356717   0.1928473   0.3214122), wk =   0.0007513
        k(  809) = (  -0.8999541   0.2571297   0.3856946), wk =   0.0007513
        k(  810) = (  -0.2571297  -0.3856946  -0.2571297), wk =   0.0007513
        k(  811) = (  -0.3214122  -0.3214122  -0.1928473), wk =   0.0007513
        k(  812) = (  -0.3856946  -0.2571297  -0.1285649), wk =   0.0007513
        k(  813) = (  -0.4499770  -0.1928473  -0.0642824), wk =   0.0007513
        k(  814) = (  -0.5142595  -0.1285649   0.0000000), wk =   0.0007513
        k(  815) = (  -0.5142595  -0.1285649   0.1285649), wk =   0.0007513
        k(  816) = (  -0.5785419  -0.0642824   0.1928473), wk =   0.0007513
        k(  817) = (  -0.6428243  -0.0000000   0.2571297), wk =   0.0007513
        k(  818) = (  -0.7071068   0.0642824   0.3214122), wk =   0.0007513
        k(  819) = (  -0.7713892   0.1285649   0.3856946), wk =   0.0007513
        k(  820) = (  -0.8356717   0.1928473   0.4499770), wk =   0.0007513
        k(  821) = (  -0.1928473  -0.4499770  -0.1928473), wk =   0.0007513
        k(  822) = (  -0.2571297  -0.3856946  -0.1285649), wk =   0.0007513
        k(  823) = (  -0.3214122  -0.3214122  -0.0642824), wk =   0.0007513
        k(  824) = (  -0.3856946  -0.2571297   0.0000000), wk =   0.0007513
        k(  825) = (  -0.4499770  -0.1928473   0.0642824), wk =   0.0007513
        k(  826) = (  -0.4499770  -0.1928473   0.1928473), wk =   0.0007513
        k(  827) = (  -0.5142595  -0.1285649   0.2571297), wk =   0.0007513
        k(  828) = (  -0.5785419  -0.0642824   0.3214122), wk =   0.0007513
        k(  829) = (  -0.6428243  -0.0000000   0.3856946), wk =   0.0007513
        k(  830) = (  -0.7071068   0.0642824   0.4499770), wk =   0.0007513
        k(  831) = (  -0.7713892   0.1285649   0.5142595), wk =   0.0007513
        k(  832) = (  -0.1285649  -0.5142595  -0.1285649), wk =   0.0007513
        k(  833) = (  -0.1928473  -0.4499770  -0.0642824), wk =   0.0007513
        k(  834) = (  -0.2571297  -0.3856946   0.0000000), wk =   0.0007513
        k(  835) = (  -0.3214122  -0.3214122   0.0642824), wk =   0.0007513
        k(  836) = (  -0.3856946  -0.2571297   0.1285649), wk =   0.0007513
        k(  837) = (  -0.3856946  -0.2571297   0.2571297), wk =   0.0007513
        k(  838) = (  -0.4499770  -0.1928473   0.3214122), wk =   0.0007513
        k(  839) = (  -0.5142595  -0.1285649   0.3856946), wk =   0.0007513
        k(  840) = (  -0.5785419  -0.0642824   0.4499770), wk =   0.0007513
        k(  841) = (  -0.6428243   0.0000000   0.5142595), wk =   0.0007513
        k(  842) = (  -0.7071068   0.0642824   0.5785419), wk =   0.0007513
        k(  843) = (  -0.0642824  -0.5785419  -0.0642824), wk =   0.0007513
        k(  844) = (  -0.1285649  -0.5142595   0.0000000), wk =   0.0007513
        k(  845) = (  -0.1928473  -0.4499770   0.0642824), wk =   0.0007513
        k(  846) = (  -0.2571297  -0.3856946   0.1285649), wk =   0.0007513
        k(  847) = (  -0.3214122  -0.3214122   0.1928473), wk =   0.0007513
        k(  848) = (  -0.2571297  -0.2571297   0.2571297), wk =   0.0007513
        k(  849) = (  -0.3214122  -0.1928473   0.3214122), wk =   0.0007513
        k(  850) = (  -0.3856946  -0.1285649   0.3856946), wk =   0.0007513
        k(  851) = (  -0.4499770  -0.0642824   0.4499770), wk =   0.0007513
        k(  852) = (  -0.5142595   0.0000000   0.5142595), wk =   0.0007513
        k(  853) = (  -0.5785419   0.0642824   0.5785419), wk =   0.0007513
        k(  854) = (   0.0642824  -0.5785419  -0.0642824), wk =   0.0007513
        k(  855) = (   0.0000000  -0.5142595   0.0000000), wk =   0.0007513
        k(  856) = (  -0.0642824  -0.4499770   0.0642824), wk =   0.0007513
        k(  857) = (  -0.1285649  -0.3856946   0.1285649), wk =   0.0007513
        k(  858) = (  -0.1928473  -0.3214122   0.1928473), wk =   0.0007513
        k(  859) = (  -0.1928473  -0.3214122   0.3214122), wk =   0.0007513
        k(  860) = (  -0.2571297  -0.2571297   0.3856946), wk =   0.0007513
        k(  861) = (  -0.3214122  -0.1928473   0.4499770), wk =   0.0007513
        k(  862) = (  -0.3856946  -0.1285649   0.5142595), wk =   0.0007513
        k(  863) = (  -0.4499770  -0.0642824   0.5785419), wk =   0.0007513
        k(  864) = (  -0.5142595   0.0000000   0.6428243), wk =   0.0007513
        k(  865) = (   0.1285649  -0.6428243  -0.0000000), wk =   0.0007513
        k(  866) = (   0.0642824  -0.5785419   0.0642824), wk =   0.0007513
        k(  867) = (  -0.0000000  -0.5142595   0.1285649), wk =   0.0007513
        k(  868) = (  -0.0642824  -0.4499770   0.1928473), wk =   0.0007513
        k(  869) = (  -0.1285649  -0.3856946   0.2571297), wk =   0.0007513
        k(  870) = (  -0.1285649  -0.3856946   0.3856946), wk =   0.0007513
        k(  871) = (  -0.1928473  -0.3214122   0.4499770), wk =   0.0007513
        k(  872) = (  -0.2571297  -0.2571297   0.5142595), wk =   0.0007513
        k(  873) = (  -0.3214122  -0.1928473   0.5785419), wk =   0.0007513
        k(  874) = (  -0.3856946  -0.1285649   0.6428243), wk =   0.0007513
        k(  875) = (  -0.4499770  -0.0642824   0.7071068), wk =   0.0007513
        k(  876) = (   0.1928473  -0.7071068   0.0642824), wk =   0.0007513
        k(  877) = (   0.1285649  -0.6428243   0.1285649), wk =   0.0007513
        k(  878) = (   0.0642824  -0.5785419   0.1928473), wk =   0.0007513
        k(  879) = (  -0.0000000  -0.5142595   0.2571297), wk =   0.0007513
        k(  880) = (  -0.0642824  -0.4499770   0.3214122), wk =   0.0007513
        k(  881) = (  -0.0642824  -0.4499770   0.4499770), wk =   0.0007513
        k(  882) = (  -0.1285649  -0.3856946   0.5142595), wk =   0.0007513
        k(  883) = (  -0.1928473  -0.3214122   0.5785419), wk =   0.0007513
        k(  884) = (  -0.2571297  -0.2571297   0.6428243), wk =   0.0007513
        k(  885) = (  -0.3214122  -0.1928473   0.7071068), wk =   0.0007513
        k(  886) = (  -0.3856946  -0.1285649   0.7713892), wk =   0.0007513
        k(  887) = (   0.2571297  -0.7713892   0.1285649), wk =   0.0007513
        k(  888) = (   0.1928473  -0.7071068   0.1928473), wk =   0.0007513
        k(  889) = (   0.1285649  -0.6428243   0.2571297), wk =   0.0007513
        k(  890) = (   0.0642824  -0.5785419   0.3214122), wk =   0.0007513
        k(  891) = (   0.0000000  -0.5142595   0.3856946), wk =   0.0007513
        k(  892) = (   0.0000000  -0.5142595   0.5142595), wk =   0.0007513
        k(  893) = (  -0.0642824  -0.4499770   0.5785419), wk =   0.0007513
        k(  894) = (  -0.1285649  -0.3856946   0.6428243), wk =   0.0007513
        k(  895) = (  -0.1928473  -0.3214122   0.7071068), wk =   0.0007513
        k(  896) = (  -0.2571297  -0.2571297   0.7713892), wk =   0.0007513
        k(  897) = (  -0.3214122  -0.1928473   0.8356717), wk =   0.0007513
        k(  898) = (   0.3214122  -0.8356717   0.1928473), wk =   0.0007513
        k(  899) = (   0.2571297  -0.7713892   0.2571297), wk =   0.0007513
        k(  900) = (   0.1928473  -0.7071068   0.3214122), wk =   0.0007513
        k(  901) = (   0.1285649  -0.6428243   0.3856946), wk =   0.0007513
        k(  902) = (   0.0642824  -0.5785419   0.4499770), wk =   0.0007513
        k(  903) = (   0.0642824  -0.5785419   0.5785419), wk =   0.0007513
        k(  904) = (   0.0000000  -0.5142595   0.6428243), wk =   0.0007513
        k(  905) = (  -0.0642824  -0.4499770   0.7071068), wk =   0.0007513
        k(  906) = (  -0.1285649  -0.3856946   0.7713892), wk =   0.0007513
        k(  907) = (  -0.1928473  -0.3214122   0.8356717), wk =   0.0007513
        k(  908) = (  -0.2571297  -0.2571297   0.8999541), wk =   0.0007513
        k(  909) = (   0.3856946  -0.8999541   0.2571297), wk =   0.0007513
        k(  910) = (   0.3214122  -0.8356717   0.3214122), wk =   0.0007513
        k(  911) = (   0.2571297  -0.7713892   0.3856946), wk =   0.0007513
        k(  912) = (   0.1928473  -0.7071068   0.4499770), wk =   0.0007513
        k(  913) = (   0.1285649  -0.6428243   0.5142595), wk =   0.0007513
        k(  914) = (  -0.5785419   0.0642824  -0.0642824), wk =   0.0007513
        k(  915) = (  -0.6428243   0.1285649  -0.0000000), wk =   0.0007513
        k(  916) = (  -0.7071068   0.1928473   0.0642824), wk =   0.0007513
        k(  917) = (  -0.7713892   0.2571297   0.1285649), wk =   0.0007513
        k(  918) = (  -0.8356717   0.3214122   0.1928473), wk =   0.0007513
        k(  919) = (  -0.8999541   0.3856946   0.2571297), wk =   0.0007513
        k(  920) = (  -0.2571297  -0.2571297  -0.3856946), wk =   0.0007513
        k(  921) = (  -0.3214122  -0.1928473  -0.3214122), wk =   0.0007513
        k(  922) = (  -0.3856946  -0.1285649  -0.2571297), wk =   0.0007513
        k(  923) = (  -0.4499770  -0.0642824  -0.1928473), wk =   0.0007513
        k(  924) = (  -0.5142595   0.0000000  -0.1285649), wk =   0.0007513
        k(  925) = (  -0.5142595   0.0000000   0.0000000), wk =   0.0007513
        k(  926) = (  -0.5785419   0.0642824   0.0642824), wk =   0.0007513
        k(  927) = (  -0.6428243   0.1285649   0.1285649), wk =   0.0007513
        k(  928) = (  -0.7071068   0.1928473   0.1928473), wk =   0.0007513
        k(  929) = (  -0.7713892   0.2571297   0.2571297), wk =   0.0007513
        k(  930) = (  -0.8356717   0.3214122   0.3214122), wk =   0.0007513
        k(  931) = (  -0.1928473  -0.3214122  -0.3214122), wk =   0.0007513
        k(  932) = (  -0.2571297  -0.2571297  -0.2571297), wk =   0.0007513
        k(  933) = (  -0.3214122  -0.1928473  -0.1928473), wk =   0.0007513
        k(  934) = (  -0.3856946  -0.1285649  -0.1285649), wk =   0.0007513
        k(  935) = (  -0.4499770  -0.0642824  -0.0642824), wk =   0.0007513
        k(  936) = (  -0.4499770  -0.0642824   0.0642824), wk =   0.0007513
        k(  937) = (  -0.5142595  -0.0000000   0.1285649), wk =   0.0007513
        k(  938) = (  -0.5785419   0.0642824   0.1928473), wk =   0.0007513
        k(  939) = (  -0.6428243   0.1285649   0.2571297), wk =   0.0007513
        k(  940) = (  -0.7071068   0.1928473   0.3214122), wk =   0.0007513
        k(  941) = (  -0.7713892   0.2571297   0.3856946), wk =   0.0007513
        k(  942) = (  -0.1285649  -0.3856946  -0.2571297), wk =   0.0007513
        k(  943) = (  -0.1928473  -0.3214122  -0.1928473), wk =   0.0007513
        k(  944) = (  -0.2571297  -0.2571297  -0.1285649), wk =   0.0007513
        k(  945) = (  -0.3214122  -0.1928473  -0.0642824), wk =   0.0007513
        k(  946) = (  -0.3856946  -0.1285649   0.0000000), wk =   0.0007513
        k(  947) = (  -0.3856946  -0.1285649   0.1285649), wk =   0.0007513
        k(  948) = (  -0.4499770  -0.0642824   0.1928473), wk =   0.0007513
        k(  949) = (  -0.5142595  -0.0000000   0.2571297), wk =   0.0007513
        k(  950) = (  -0.5785419   0.0642824   0.3214122), wk =   0.0007513
        k(  951) = (  -0.6428243   0.1285649   0.3856946), wk =   0.0007513
        k(  952) = (  -0.7071068   0.1928473   0.4499770), wk =   0.0007513
        k(  953) = (  -0.0642824  -0.4499770  -0.1928473), wk =   0.0007513
        k(  954) = (  -0.1285649  -0.3856946  -0.1285649), wk =   0.0007513
        k(  955) = (  -0.1928473  -0.3214122  -0.0642824), wk =   0.0007513
        k(  956) = (  -0.2571297  -0.2571297   0.0000000), wk =   0.0007513
        k(  957) = (  -0.3214122  -0.1928473   0.0642824), wk =   0.0007513
        k(  958) = (  -0.3214122  -0.1928473   0.1928473), wk =   0.0007513
        k(  959) = (  -0.3856946  -0.1285649   0.2571297), wk =   0.0007513
        k(  960) = (  -0.4499770  -0.0642824   0.3214122), wk =   0.0007513
        k(  961) = (  -0.5142595   0.0000000   0.3856946), wk =   0.0007513
        k(  962) = (  -0.5785419   0.0642824   0.4499770), wk =   0.0007513
        k(  963) = (  -0.6428243   0.1285649   0.5142595), wk =   0.0007513
        k(  964) = (   0.0000000  -0.5142595  -0.1285649), wk =   0.0007513
        k(  965) = (  -0.0642824  -0.4499770  -0.0642824), wk =   0.0007513
        k(  966) = (  -0.1285649  -0.3856946   0.0000000), wk =   0.0007513
        k(  967) = (  -0.1928473  -0.3214122   0.0642824), wk =   0.0007513
        k(  968) = (  -0.2571297  -0.2571297   0.1285649), wk =   0.0007513
        k(  969) = (  -0.1928473  -0.1928473   0.1928473), wk =   0.0007513
        k(  970) = (  -0.2571297  -0.1285649   0.2571297), wk =   0.0007513
        k(  971) = (  -0.3214122  -0.0642824   0.3214122), wk =   0.0007513
        k(  972) = (  -0.3856946   0.0000000   0.3856946), wk =   0.0007513
        k(  973) = (  -0.4499770   0.0642824   0.4499770), wk =   0.0007513
        k(  974) = (  -0.5142595   0.1285649   0.5142595), wk =   0.0007513
        k(  975) = (   0.1285649  -0.5142595  -0.1285649), wk =   0.0007513
        k(  976) = (   0.0642824  -0.4499770  -0.0642824), wk =   0.0007513
        k(  977) = (   0.0000000  -0.3856946   0.0000000), wk =   0.0007513
        k(  978) = (  -0.0642824  -0.3214122   0.0642824), wk =   0.0007513
        k(  979) = (  -0.1285649  -0.2571297   0.1285649), wk =   0.0007513
        k(  980) = (  -0.1285649  -0.2571297   0.2571297), wk =   0.0007513
        k(  981) = (  -0.1928473  -0.1928473   0.3214122), wk =   0.0007513
        k(  982) = (  -0.2571297  -0.1285649   0.3856946), wk =   0.0007513
        k(  983) = (  -0.3214122  -0.0642824   0.4499770), wk =   0.0007513
        k(  984) = (  -0.3856946   0.0000000   0.5142595), wk =   0.0007513
        k(  985) = (  -0.4499770   0.0642824   0.5785419), wk =   0.0007513
        k(  986) = (   0.1928473  -0.5785419  -0.0642824), wk =   0.0007513
        k(  987) = (   0.1285649  -0.5142595   0.0000000), wk =   0.0007513
        k(  988) = (   0.0642824  -0.4499770   0.0642824), wk =   0.0007513
        k(  989) = (   0.0000000  -0.3856946   0.1285649), wk =   0.0007513
        k(  990) = (  -0.0642824  -0.3214122   0.1928473), wk =   0.0007513
        k(  991) = (  -0.0642824  -0.3214122   0.3214122), wk =   0.0007513
        k(  992) = (  -0.1285649  -0.2571297   0.3856946), wk =   0.0007513
        k(  993) = (  -0.1928473  -0.1928473   0.4499770), wk =   0.0007513
[...]

    -2.3925  -1.0614   2.8002   2.9238

     occupation numbers 
     1.0000   1.0000   1.0000   1.0000

          k = 0.5143-0.6428-0.0000 (   745 PWs)   bands (ev):

    -1.8838  -1.5091   2.1259   2.9961

     occupation numbers 
     1.0000   1.0000   1.0000   1.0000

          k = 0.4500-0.5785 0.0643 (   746 PWs)   bands (ev):

    -2.4073  -0.9834   1.8086   3.3254

     occupation numbers 
     1.0000   1.0000   1.0000   1.0000

          k = 0.3857-0.5143 0.1286 (   744 PWs)   bands (ev):

    -2.9504  -0.7415   2.2664   3.8138

     occupation numbers 
     1.0000   1.0000   1.0000   1.0000

          k = 0.3214-0.4500 0.1928 (   750 PWs)   bands (ev):

    -3.4210  -0.6644   3.2633   4.3330

     occupation numbers 
     1.0000   1.0000   1.0000   1.0000

          k = 0.2571-0.3857 0.2571 (   750 PWs)   bands (ev):

    -3.7821  -0.4833   4.2606   4.5959

     occupation numbers 
     1.0000   1.0000   1.0000   1.0000

          k = 0.2571-0.3857 0.3857 (   752 PWs)   bands (ev):

    -3.5098  -0.8875   4.0821   4.6987

     occupation numbers 
     1.0000   1.0000   1.0000   1.0000

          k = 0.1928-0.3214 0.4500 (   750 PWs)   bands (ev):

    -3.4210  -0.6644   3.2633   4.3330

     occupation numbers 
     1.0000   1.0000   1.0000   1.0000

          k = 0.1286-0.2571 0.5143 (   742 PWs)   bands (ev):

    -3.2198  -0.3891   2.4984   3.7235

     occupation numbers 
     1.0000   1.0000   1.0000   1.0000

          k = 0.0643-0.1928 0.5785 (   748 PWs)   bands (ev):

    -2.8805  -0.4820   2.3375   3.2084

     occupation numbers 
     1.0000   1.0000   1.0000   1.0000

          k = 0.0000-0.1286 0.6428 (   749 PWs)   bands (ev):

    -2.3925  -1.0614   2.8002   2.9238

     occupation numbers 
     1.0000   1.0000   1.0000   1.0000

          k =-0.0643-0.0643 0.7071 (   744 PWs)   bands (ev):

    -1.8200  -1.7096   2.7616   3.2415

     occupation numbers 
     1.0000   1.0000   1.0000   1.0000

          k = 0.5785-0.7071 0.0643 (   749 PWs)   bands (ev):

    -2.3925  -1.0614   2.8002   2.9238

     occupation numbers 
     1.0000   1.0000   1.0000   1.0000

          k = 0.5143-0.6428 0.1286 (   748 PWs)   bands (ev):

    -2.8805  -0.4820   2.3375   3.2084

     occupation numbers 
     1.0000   1.0000   1.0000   1.0000

          k = 0.4500-0.5785 0.1928 (   742 PWs)   bands (ev):

    -3.2198  -0.3891   2.4984   3.7235

     occupation numbers 
     1.0000   1.0000   1.0000   1.0000

          k = 0.3857-0.5143 0.2571 (   750 PWs)   bands (ev):

    -3.4210  -0.6644   3.2633   4.3330

     occupation numbers 
     1.0000   1.0000   1.0000   1.0000

          k = 0.3214-0.4500 0.3214 (   752 PWs)   bands (ev):

    -3.5098  -0.8875   4.0821   4.6987

     occupation numbers 
     1.0000   1.0000   1.0000   1.0000

          k =-0.3857 0.2571-0.2571 (   750 PWs)   bands (ev):

    -3.7821  -0.4833   4.2606   4.5959

     occupation numbers 
     1.0000   1.0000   1.0000   1.0000

          k =-0.4500 0.3214-0.1928 (   750 PWs)   bands (ev):

    -3.4210  -0.6644   3.2633   4.3330

     occupation numbers 
     1.0000   1.0000   1.0000   1.0000

          k =-0.5143 0.3857-0.1286 (   744 PWs)   bands (ev):

    -2.9504  -0.7415   2.2664   3.8138

     occupation numbers 
     1.0000   1.0000   1.0000   1.0000

          k =-0.5785 0.4500-0.0643 (   746 PWs)   bands (ev):

    -2.4073  -0.9834   1.8086   3.3254

     occupation numbers 
     1.0000   1.0000   1.0000   1.0000

          k =-0.6428 0.5143 0.0000 (   745 PWs)   bands (ev):

    -1.8838  -1.5091   2.1259   2.9961

     occupation numbers 
     1.0000   1.0000   1.0000   1.0000

          k =-0.7071 0.5785 0.0643 (   749 PWs)   bands (ev):

    -2.3925  -1.0614   2.8002   2.9238

     occupation numbers 
     1.0000   1.0000   1.0000   1.0000

          k =-0.0643-0.0643-0.5785 (   754 PWs)   bands (ev):

    -3.0504  -0.3370   2.9283   3.3701

     occupation numbers 
     1.0000   1.0000   1.0000   1.0000

          k =-0.1286 0.0000-0.5143 (   751 PWs)   bands (ev):

    -3.5629   0.3399   2.9914   3.3894

     occupation numbers 
     1.0000   1.0000   1.0000   1.0000

          k =-0.1928 0.0643-0.4500 (   757 PWs)   bands (ev):

    -3.8957   0.6248   2.8866   3.8800

     occupation numbers 
     1.0000   1.0000   1.0000   1.0000

          k =-0.2571 0.1286-0.3857 (   756 PWs)   bands (ev):

    -4.0394   0.3220   3.3627   4.5442

     occupation numbers 
     1.0000   1.0000   1.0000   1.0000

          k =-0.3214 0.1928-0.3214 (   758 PWs)   bands (ev):

    -3.9969  -0.1343   4.0450   4.9271

     occupation numbers 
     1.0000   1.0000   1.0000   1.0000

          k =-0.3214 0.1928-0.1928 (   760 PWs)   bands (ev):

    -4.4548   0.7137   4.5596   4.6350

     occupation numbers 
     1.0000   1.0000   1.0000   1.0000

          k =-0.3857 0.2571-0.1286 (   756 PWs)   bands (ev):

    -4.0394   0.3220   3.3627   4.5442

     occupation numbers 
     1.0000   1.0000   1.0000   1.0000

          k =-0.4500 0.3214-0.0643 (   754 PWs)   bands (ev):

    -3.4602  -0.0473   2.2538   4.1114

     occupation numbers 
     1.0000   1.0000   1.0000   1.0000

          k =-0.5143 0.3857 0.0000 (   744 PWs)   bands (ev):

    -2.7947  -0.5828   1.7026   3.6510

     occupation numbers 
     1.0000   1.0000   1.0000   1.0000

          k =-0.5785 0.4500 0.0643 (   746 PWs)   bands (ev):

    -2.4073  -0.9834   1.8086   3.3254

     occupation numbers 
     1.0000   1.0000   1.0000   1.0000

          k =-0.6428 0.5143 0.1286 (   748 PWs)   bands (ev):

    -2.8805  -0.4820   2.3375   3.2084

     occupation numbers 
     1.0000   1.0000   1.0000   1.0000

          k = 0.0000-0.1286-0.5143 (   751 PWs)   bands (ev):

    -3.5629   0.3399   2.9914   3.3894

     occupation numbers 
     1.0000   1.0000   1.0000   1.0000

          k =-0.0643-0.0643-0.4500 (   749 PWs)   bands (ev):

    -4.1290   1.1369   3.4348   3.7504

     occupation numbers 
     1.0000   1.0000   1.0000   1.0000

          k =-0.1286 0.0000-0.3857 (   746 PWs)   bands (ev):

    -4.5144   1.7059   3.4679   4.1971

     occupation numbers 
     1.0000   1.0000   1.0000   1.0000

          k =-0.1928 0.0643-0.3214 (   753 PWs)   bands (ev):

    -4.6995   1.6694   3.6199   4.8893

     occupation numbers 
     1.0000   1.0000   1.0000   1.0000

          k =-0.2571 0.1286-0.2571 (   756 PWs)   bands (ev):

    -4.6787   1.1975   4.1658   5.2521

     occupation numbers 
     1.0000   1.0000   1.0000   1.0000

          k =-0.2571 0.1286-0.1286 (   751 PWs)   bands (ev):

    -5.0777   2.2250   4.8209   4.9432

     occupation numbers 
     1.0000   1.0000   1.0000   1.0000

          k =-0.3214 0.1928-0.0643 (   753 PWs)   bands (ev):

    -4.6995   1.6694   3.6199   4.8893

     occupation numbers 
     1.0000   1.0000   1.0000   1.0000

          k =-0.3857 0.2571 0.0000 (   754 PWs)   bands (ev):

    -4.1379   0.9370   2.6325   4.5294

     occupation numbers 
     1.0000   1.0000   1.0000   1.0000

          k =-0.4500 0.3214 0.0643 (   754 PWs)   bands (ev):

    -3.4602  -0.0473   2.2538   4.1114

     occupation numbers 
     1.0000   1.0000   1.0000   1.0000

          k =-0.5143 0.3857 0.1286 (   744 PWs)   bands (ev):

    -2.9504  -0.7415   2.2664   3.8138

     occupation numbers 
     1.0000   1.0000   1.0000   1.0000

          k =-0.5785 0.4500 0.1928 (   742 PWs)   bands (ev):

    -3.2198  -0.3891   2.4984   3.7235

     occupation numbers 
     1.0000   1.0000   1.0000   1.0000

          k = 0.0643-0.1928-0.4500 (   757 PWs)   bands (ev):

    -3.8957   0.6248   2.8866   3.8800

     occupation numbers 
     1.0000   1.0000   1.0000   1.0000

          k = 0.0000-0.1286-0.3857 (   746 PWs)   bands (ev):

    -4.5144   1.7059   3.4679   4.1971

     occupation numbers 
     1.0000   1.0000   1.0000   1.0000

          k =-0.0643-0.0643-0.3214 (   746 PWs)   bands (ev):

    -4.9639   2.5487   4.2795   4.3607

     occupation numbers 
     1.0000   1.0000   1.0000   1.0000

          k =-0.1286-0.0000-0.2571 (   758 PWs)   bands (ev):

    -5.2129   2.9914   4.1862   5.2098

     occupation numbers 
     1.0000   1.0000   1.0000   1.0000

          k =-0.1928 0.0643-0.1928 (   754 PWs)   bands (ev):

    -5.2512   2.7516   4.4630   5.6171

     occupation numbers 
     1.0000   1.0000   1.0000   1.0000

          k =-0.1928 0.0643-0.0643 (   753 PWs)   bands (ev):

    -5.5312   3.8496   5.1397   5.3197

     occupation numbers 
     1.0000   1.0000   1.0000   1.0000

          k =-0.2571 0.1286 0.0000 (   758 PWs)   bands (ev):

    -5.2129   2.9914   4.1862   5.2098

     occupation numbers 
     1.0000   1.0000   1.0000   1.0000

          k =-0.3214 0.1928 0.0643 (   753 PWs)   bands (ev):

    -4.6995   1.6694   3.6199   4.8893

     occupation numbers 
     1.0000   1.0000   1.0000   1.0000

          k =-0.3857 0.2571 0.1286 (   756 PWs)   bands (ev):

    -4.0394   0.3220   3.3627   4.5442

     occupation numbers 
     1.0000   1.0000   1.0000   1.0000

          k =-0.4500 0.3214 0.1928 (   750 PWs)   bands (ev):

    -3.4210  -0.6644   3.2633   4.3330

     occupation numbers 
     1.0000   1.0000   1.0000   1.0000

          k =-0.5143 0.3857 0.2571 (   750 PWs)   bands (ev):

    -3.4210  -0.6644   3.2633   4.3330

     occupation numbers 
     1.0000   1.0000   1.0000   1.0000

          k = 0.1286-0.2571-0.3857 (   756 PWs)   bands (ev):

    -4.0394   0.3220   3.3627   4.5442

     occupation numbers 
     1.0000   1.0000   1.0000   1.0000

          k = 0.0643-0.1928-0.3214 (   753 PWs)   bands (ev):

    -4.6995   1.6694   3.6199   4.8893

     occupation numbers 
     1.0000   1.0000   1.0000   1.0000

          k =-0.0000-0.1286-0.2571 (   758 PWs)   bands (ev):

    -5.2129   2.9914   4.1862   5.2098

     occupation numbers 
     1.0000   1.0000   1.0000   1.0000

          k =-0.0643-0.0643-0.1928 (   753 PWs)   bands (ev):

    -5.5312   3.8496   5.1397   5.3197

     occupation numbers 
     1.0000   1.0000   1.0000   1.0000

          k =-0.1286-0.0000-0.1286 (   751 PWs)   bands (ev):

    -5.6387   4.2264   5.0319   5.8923

     occupation numbers 
     1.0000   1.0000   1.0000   1.0000

          k =-0.1286 0.0000 0.0000 (   745 PWs)   bands (ev):

    -5.7816   5.2134   5.5377   5.5377

     occupation numbers 
     1.0000   1.0000   1.0000   1.0000

          k =-0.1928 0.0643 0.0643 (   753 PWs)   bands (ev):

    -5.5312   3.8496   5.1397   5.3197

     occupation numbers 
     1.0000   1.0000   1.0000   1.0000

          k =-0.2571 0.1286 0.1286 (   751 PWs)   bands (ev):

    -5.0777   2.2250   4.8209   4.9432

     occupation numbers 
     1.0000   1.0000   1.0000   1.0000

          k =-0.3214 0.1928 0.1928 (   760 PWs)   bands (ev):

    -4.4548   0.7137   4.5596   4.6350

     occupation numbers 
     1.0000   1.0000   1.0000   1.0000

          k =-0.3857 0.2571 0.2571 (   750 PWs)   bands (ev):

    -3.7821  -0.4833   4.2606   4.5959

     occupation numbers 
     1.0000   1.0000   1.0000   1.0000

          k =-0.4500 0.3214 0.3214 (   752 PWs)   bands (ev):

    -3.5098  -0.8875   4.0821   4.6987

     occupation numbers 
     1.0000   1.0000   1.0000   1.0000

          k = 0.1928-0.3214-0.3214 (   758 PWs)   bands (ev):

    -3.9969  -0.1343   4.0450   4.9271

     occupation numbers 
     1.0000   1.0000   1.0000   1.0000

          k = 0.1286-0.2571-0.2571 (   756 PWs)   bands (ev):

    -4.6787   1.1975   4.1658   5.2521

     occupation numbers 
     1.0000   1.0000   1.0000   1.0000

          k = 0.0643-0.1928-0.1928 (   754 PWs)   bands (ev):

    -5.2512   2.7516   4.4630   5.6171

     occupation numbers 
     1.0000   1.0000   1.0000   1.0000

          k =-0.0000-0.1286-0.1286 (   751 PWs)   bands (ev):

    -5.6387   4.2264   5.0319   5.8923

     occupation numbers 
     1.0000   1.0000   1.0000   1.0000

          k =-0.0643-0.0643-0.0643 (   737 PWs)   bands (ev):

    -5.8179   5.0339   5.8662   5.8662

     occupation numbers 
     1.0000   1.0000   1.0000   1.0000

     highest occupied level (ev):     6.0341

!    total energy              =     -17.05034437 Ry
     estimated scf accuracy    <          7.7E-12 Ry

     The total energy is the sum of the following terms:
     one-electron contribution =       4.84783608 Ry
     hartree contribution      =       1.09527478 Ry
     xc contribution           =      -6.19748095 Ry
     ewald contribution        =     -16.79597428 Ry

     total magnetization       =     0.00 Bohr mag/cell
     absolute magnetization    =     0.00 Bohr mag/cell

     convergence has been achieved in  15 iterations

     Forces acting on atoms (cartesian axes, Ry/au):

     atom    1 type  1   force =    -0.00000004   -0.00000003    0.00000008
     atom    2 type  1   force =     0.00000004    0.00000003   -0.00000008
     The non-local contrib.  to forces
     atom    1 type  1   force =    -0.00000004   -0.00000016    0.00000014
     atom    2 type  1   force =     0.00000001   -0.00000014    0.00000017
     The ionic contribution  to forces
     atom    1 type  1   force =     0.00000000    0.00000000    0.00000000
     atom    2 type  1   force =    -0.00000000   -0.00000000   -0.00000000
     The local contribution  to forces
     atom    1 type  1   force =     0.00000002    0.00000009   -0.00000008
     atom    2 type  1   force =     0.00000001    0.00000013   -0.00000024
     The core correction contribution to forces
     atom    1 type  1   force =     0.00000000    0.00000001   -0.00000001
     atom    2 type  1   force =     0.00000000    0.00000001   -0.00000001
     The Hubbard contrib.    to forces
     atom    1 type  1   force =     0.00000000    0.00000000    0.00000000
     atom    2 type  1   force =     0.00000000    0.00000000    0.00000000
     The SCF correction term to forces
     atom    1 type  1   force =    -0.00000003    0.00000000    0.00000001
     atom    2 type  1   force =     0.00000001    0.00000001   -0.00000001

     Total force =     0.000000     Total SCF correction =     0.000000
     SCF correction compared to forces is large: reduce conv_thr to get better values


     Computing stress (Cartesian axis) and pressure

          total   stress  (Ry/bohr**3)                   (kbar)     P=      -19.09
  -0.00012977  -0.00000000  -0.00000000          -19.09       -0.00       -0.00
  -0.00000000  -0.00012977   0.00000000           -0.00      -19.09        0.00
  -0.00000000   0.00000000  -0.00012977           -0.00        0.00      -19.09

     kinetic stress (kbar)   2234.08      0.00     -0.00
                                0.00   2234.08     -0.00
                               -0.00     -0.00   2234.07

     local   stress (kbar)   -419.18     -0.00      0.00
                               -0.00   -419.18      0.00
                                0.00      0.00   -419.18

     nonloc. stress (kbar)   1971.55      0.00     -0.00
                                0.00   1971.55     -0.00
                               -0.00     -0.00   1971.55

     hartree stress (kbar)    198.73      0.00     -0.00
                                0.00    198.73     -0.00
                               -0.00     -0.00    198.73

     exc-cor stress (kbar)   -149.73      0.00      0.00
                                0.00   -149.73      0.00
                                0.00      0.00   -149.73

     corecor stress (kbar)   -807.02     -0.00      0.00
                               -0.00   -807.02      0.00
                                0.00      0.00   -807.02

     ewald   stress (kbar)  -3047.51     -0.00      0.00
                               -0.00  -3047.51     -0.00
                                0.00     -0.00  -3047.51

     hubbard stress (kbar)      0.00      0.00      0.00
                                0.00      0.00      0.00
                                0.00      0.00      0.00

     DFT-D   stress (kbar)      0.00      0.00      0.00
                                0.00      0.00      0.00
                                0.00      0.00      0.00

     XDM     stress (kbar)      0.00      0.00      0.00
                                0.00      0.00      0.00
                                0.00      0.00      0.00

     dft-nl  stress (kbar)      0.00      0.00      0.00
                                0.00      0.00      0.00
                                0.00      0.00      0.00

     TS-vdW  stress (kbar)      0.00      0.00      0.00
                                0.00      0.00      0.00
                                0.00      0.00      0.00

     MDB     stress (kbar)      0.00      0.00      0.00
                                0.00      0.00      0.00
                                0.00      0.00      0.00

     3D-RISM stress (kbar)      0.00      0.00      0.00
                                0.00      0.00      0.00
                                0.00      0.00      0.00


     Writing all to output data dir ./out/si_lda.save/ :
     XML data file, charge density, pseudopotentials, collected wavefunctions

     init_run     :      4.60s CPU      4.65s WALL (       1 calls)
     electrons    :    130.50s CPU    132.16s WALL (       1 calls)
     forces       :      1.44s CPU      1.45s WALL (       1 calls)
     stress       :      8.09s CPU      8.09s WALL (       1 calls)

     Called by init_run:
     wfcinit      :      4.22s CPU      4.27s WALL (       1 calls)
     wfcinit:atom :      0.14s CPU      0.14s WALL (    2662 calls)
     wfcinit:wfcr :      3.21s CPU      3.25s WALL (    2662 calls)
     potinit      :      0.06s CPU      0.06s WALL (       1 calls)
     hinit0       :      0.20s CPU      0.20s WALL (       1 calls)

     Called by electrons:
     c_bands      :    116.25s CPU    117.76s WALL (      16 calls)
     sum_band     :     14.11s CPU     14.25s WALL (      16 calls)
     v_of_rho     :      0.09s CPU      0.09s WALL (      16 calls)
     v_h          :      0.01s CPU      0.01s WALL (      16 calls)
     v_xc         :      0.10s CPU      0.10s WALL (      18 calls)
     mix_rho      :      0.03s CPU      0.03s WALL (      16 calls)

     Called by c_bands:
     init_us_2    :     10.90s CPU     11.03s WALL (   93170 calls)
     cegterg      :     91.63s CPU     92.81s WALL (   42592 calls)

     Called by sum_band:
     sum_band:wei :      0.00s CPU      0.00s WALL (      16 calls)
     sum_band:loo :     14.09s CPU     14.23s WALL (      16 calls)
     sum_band:buf :      0.15s CPU      0.15s WALL (   42592 calls)
     sum_band:ini :      4.90s CPU      4.95s WALL (   42592 calls)

     Called by *egterg:
     cdiaghg      :      1.93s CPU      1.96s WALL (  161203 calls)
     cegterg:over :      3.54s CPU      3.60s WALL (  121273 calls)
     cegterg:upda :      1.94s CPU      1.97s WALL (  121273 calls)
     cegterg:last :      2.99s CPU      3.03s WALL (  113414 calls)
     h_psi        :     81.23s CPU     82.28s WALL (  166527 calls)
     g_psi        :      0.86s CPU      0.87s WALL (  121273 calls)

     Called by h_psi:
     h_psi:calbec :     11.78s CPU     11.93s WALL (  166527 calls)
     vloc_psi     :     58.46s CPU     59.23s WALL (  166527 calls)
     add_vuspsi   :     10.43s CPU     10.58s WALL (  166527 calls)

     General routines
     calbec       :     12.73s CPU     12.91s WALL (  179837 calls)
     fft          :      0.17s CPU      0.17s WALL (     148 calls)
     ffts         :      0.04s CPU      0.04s WALL (      64 calls)
     fftw         :     53.05s CPU     53.70s WALL ( 1339562 calls)
     interpolate  :      0.04s CPU      0.04s WALL (      32 calls)

     Parallel routines

     PWSCF        :   2m24.72s CPU   2m26.81s WALL


   This run was terminated on:  15:55:26  25Aug2024            

=------------------------------------------------------------------------------=
   JOB DONE.
=------------------------------------------------------------------------------=
