
     Program PWSCF v.7.3.1 starts on 16Sep2024 at  8:24:45 

     This program is part of the open-source Quantum ESPRESSO suite
     for quantum simulation of materials; please cite
         "P. Giannozzi et al., J. Phys.:Condens. Matter 21 395502 (2009);
         "P. Giannozzi et al., J. Phys.:Condens. Matter 29 465901 (2017);
         "P. Giannozzi et al., J. Chem. Phys. 152 154105 (2020);
          URL http://www.quantum-espresso.org", 
     in publications or presentations arising from this work. More details at
     http://www.quantum-espresso.org/quote

     Parallel version (MPI), running on     1 processors

     MPI processes distributed on     1 nodes
     2614 MiB available memory on the printing compute node when the environment starts

     Waiting for input...
     Reading input from standard input

     Current dimensions of program PWSCF are:
     Max number of different atomic species (ntypx) = 10
     Max number of k-points (npk) =  40000
     Max angular momentum in pseudopotentials (lmaxx) =  4
     Message from routine volume:
     axis vectors are left-handed

     Subspace diagonalization in iterative solution of the eigenvalue problem:
     a serial algorithm will be used


     G-vector sticks info
     --------------------
     sticks:   dense  smooth     PW     G-vecs:    dense   smooth      PW
     Sum         433     433    151                 5985     5985    1243

     Using Slab Decomposition



     bravais-lattice index     =            0
     lattice parameter (alat)  =       7.2571  a.u.
     unit-cell volume          =     270.2504 (a.u.)^3
     number of atoms/cell      =            2
     number of atomic types    =            1
     number of electrons       =         8.00 (up:   4.00, down:   4.00)
     number of Kohn-Sham states=            8
     kinetic-energy cutoff     =      30.0000  Ry
     charge density cutoff     =     120.0000  Ry
     scf convergence threshold =      4.0E-10
     mixing beta               =       0.4000
     number of iterations used =            8  plain     mixing
     Exchange-correlation= SLA  PW   NOGX NOGC
                           (   1   4   0   0   0   0   0)

     celldm(1)=   7.257056  celldm(2)=   0.000000  celldm(3)=   0.000000
     celldm(4)=   0.000000  celldm(5)=   0.000000  celldm(6)=   0.000000

     crystal axes: (cart. coord. in units of alat)
               a(1) = (   0.707107   0.707107   0.000000 )  
               a(2) = (   0.707107   0.000000   0.707107 )  
               a(3) = (   0.000000   0.707107   0.707107 )  

     reciprocal axes: (cart. coord. in units 2 pi/alat)
               b(1) = (  0.707107  0.707107 -0.707107 )  
               b(2) = (  0.707107 -0.707107  0.707107 )  
               b(3) = ( -0.707107  0.707107  0.707107 )  


     PseudoPot. # 1 for Si read from file:
     ./pseudo/Si_lda.upf
     MD5 check sum: 9e2d726316af3d4752eea8ab0afbb951
     Pseudo is Norm-conserving + core correction, Zval =  4.0
     Generated using ONCVPSP code by D. R. Hamann
     Using radial grid of 1510 points,  6 beta functions with: 
                l(1) =   0
                l(2) =   0
                l(3) =   1
                l(4) =   1
                l(5) =   2
                l(6) =   2

     atomic species   valence    mass     pseudopotential
     Si                4.00    28.08550     Si( 1.00)

     Starting magnetic structure 
     atomic species   magnetization
     Si              0.000

     No symmetry found


                                    s                        frac. trans.

      isym =  1     identity                                     

 cryst.   s( 1) = (     1          0          0      )
                  (     0          1          0      )
                  (     0          0          1      )

 cart.    s( 1) = (  1.0000000  0.0000000  0.0000000 )
                  (  0.0000000  1.0000000  0.0000000 )
                  (  0.0000000  0.0000000  1.0000000 )


   Cartesian axes

     site n.     atom                  positions (alat units)
         1        Si     tau(   1) = (   0.0000000   0.0000000   0.0000000  )
         2        Si     tau(   2) = (   0.3535534   0.3535534   0.3535534  )

   Crystallographic axes

     site n.     atom                  positions (cryst. coord.)
         1        Si     tau(   1) = (  0.0000000  0.0000000  0.0000000  )
         2        Si     tau(   2) = (  0.2500000  0.2500000  0.2500000  )

     number of k points=   729  Gaussian smearing, width (Ry)=  0.0100
                       cart. coord. in units 2pi/alat
        k(    1) = (   0.0000000   0.0000000   0.0000000), wk =   0.0013717
        k(    2) = (  -0.0785674   0.0785674   0.0785674), wk =   0.0013717
        k(    3) = (  -0.1571348   0.1571348   0.1571348), wk =   0.0013717
        k(    4) = (  -0.2357023   0.2357023   0.2357023), wk =   0.0013717
        k(    5) = (  -0.3142697   0.3142697   0.3142697), wk =   0.0013717
        k(    6) = (   0.3142697  -0.3142697  -0.3142697), wk =   0.0013717
        k(    7) = (   0.2357023  -0.2357023  -0.2357023), wk =   0.0013717
        k(    8) = (   0.1571348  -0.1571348  -0.1571348), wk =   0.0013717
        k(    9) = (   0.0785674  -0.0785674  -0.0785674), wk =   0.0013717
        k(   10) = (   0.0785674  -0.0785674   0.0785674), wk =   0.0013717
        k(   11) = (   0.0000000   0.0000000   0.1571348), wk =   0.0013717
        k(   12) = (  -0.0785674   0.0785674   0.2357023), wk =   0.0013717
        k(   13) = (  -0.1571348   0.1571348   0.3142697), wk =   0.0013717
        k(   14) = (  -0.2357023   0.2357023   0.3928371), wk =   0.0013717
        k(   15) = (   0.3928371  -0.3928371  -0.2357023), wk =   0.0013717
        k(   16) = (   0.3142697  -0.3142697  -0.1571348), wk =   0.0013717
        k(   17) = (   0.2357023  -0.2357023  -0.0785674), wk =   0.0013717
        k(   18) = (   0.1571348  -0.1571348  -0.0000000), wk =   0.0013717
        k(   19) = (   0.1571348  -0.1571348   0.1571348), wk =   0.0013717
        k(   20) = (   0.0785674  -0.0785674   0.2357023), wk =   0.0013717
        k(   21) = (   0.0000000   0.0000000   0.3142697), wk =   0.0013717
        k(   22) = (  -0.0785674   0.0785674   0.3928371), wk =   0.0013717
        k(   23) = (  -0.1571348   0.1571348   0.4714045), wk =   0.0013717
        k(   24) = (   0.4714045  -0.4714045  -0.1571348), wk =   0.0013717
        k(   25) = (   0.3928371  -0.3928371  -0.0785674), wk =   0.0013717
        k(   26) = (   0.3142697  -0.3142697   0.0000000), wk =   0.0013717
        k(   27) = (   0.2357023  -0.2357023   0.0785674), wk =   0.0013717
        k(   28) = (   0.2357023  -0.2357023   0.2357023), wk =   0.0013717
        k(   29) = (   0.1571348  -0.1571348   0.3142697), wk =   0.0013717
        k(   30) = (   0.0785674  -0.0785674   0.3928371), wk =   0.0013717
        k(   31) = (   0.0000000   0.0000000   0.4714045), wk =   0.0013717
        k(   32) = (  -0.0785674   0.0785674   0.5499719), wk =   0.0013717
        k(   33) = (   0.5499719  -0.5499719  -0.0785674), wk =   0.0013717
        k(   34) = (   0.4714045  -0.4714045  -0.0000000), wk =   0.0013717
        k(   35) = (   0.3928371  -0.3928371   0.0785674), wk =   0.0013717
        k(   36) = (   0.3142697  -0.3142697   0.1571348), wk =   0.0013717
        k(   37) = (   0.3142697  -0.3142697   0.3142697), wk =   0.0013717
        k(   38) = (   0.2357023  -0.2357023   0.3928371), wk =   0.0013717
        k(   39) = (   0.1571348  -0.1571348   0.4714045), wk =   0.0013717
        k(   40) = (   0.0785674  -0.0785674   0.5499719), wk =   0.0013717
        k(   41) = (   0.0000000   0.0000000   0.6285394), wk =   0.0013717
        k(   42) = (   0.6285394  -0.6285394   0.0000000), wk =   0.0013717
        k(   43) = (   0.5499719  -0.5499719   0.0785674), wk =   0.0013717
        k(   44) = (   0.4714045  -0.4714045   0.1571348), wk =   0.0013717
        k(   45) = (   0.3928371  -0.3928371   0.2357023), wk =   0.0013717
        k(   46) = (  -0.3142697   0.3142697  -0.3142697), wk =   0.0013717
        k(   47) = (  -0.3928371   0.3928371  -0.2357023), wk =   0.0013717
        k(   48) = (  -0.4714045   0.4714045  -0.1571348), wk =   0.0013717
        k(   49) = (  -0.5499719   0.5499719  -0.0785674), wk =   0.0013717
        k(   50) = (  -0.6285394   0.6285394   0.0000000), wk =   0.0013717
        k(   51) = (   0.0000000   0.0000000  -0.6285394), wk =   0.0013717
        k(   52) = (  -0.0785674   0.0785674  -0.5499719), wk =   0.0013717
        k(   53) = (  -0.1571348   0.1571348  -0.4714045), wk =   0.0013717
        k(   54) = (  -0.2357023   0.2357023  -0.3928371), wk =   0.0013717
        k(   55) = (  -0.2357023   0.2357023  -0.2357023), wk =   0.0013717
        k(   56) = (  -0.3142697   0.3142697  -0.1571348), wk =   0.0013717
        k(   57) = (  -0.3928371   0.3928371  -0.0785674), wk =   0.0013717
        k(   58) = (  -0.4714045   0.4714045  -0.0000000), wk =   0.0013717
        k(   59) = (  -0.5499719   0.5499719   0.0785674), wk =   0.0013717
        k(   60) = (   0.0785674  -0.0785674  -0.5499719), wk =   0.0013717
        k(   61) = (   0.0000000   0.0000000  -0.4714045), wk =   0.0013717
        k(   62) = (  -0.0785674   0.0785674  -0.3928371), wk =   0.0013717
        k(   63) = (  -0.1571348   0.1571348  -0.3142697), wk =   0.0013717
        k(   64) = (  -0.1571348   0.1571348  -0.1571348), wk =   0.0013717
        k(   65) = (  -0.2357023   0.2357023  -0.0785674), wk =   0.0013717
        k(   66) = (  -0.3142697   0.3142697   0.0000000), wk =   0.0013717
        k(   67) = (  -0.3928371   0.3928371   0.0785674), wk =   0.0013717
        k(   68) = (  -0.4714045   0.4714045   0.1571348), wk =   0.0013717
        k(   69) = (   0.1571348  -0.1571348  -0.4714045), wk =   0.0013717
        k(   70) = (   0.0785674  -0.0785674  -0.3928371), wk =   0.0013717
        k(   71) = (   0.0000000   0.0000000  -0.3142697), wk =   0.0013717
        k(   72) = (  -0.0785674   0.0785674  -0.2357023), wk =   0.0013717
        k(   73) = (  -0.0785674   0.0785674  -0.0785674), wk =   0.0013717
        k(   74) = (  -0.1571348   0.1571348  -0.0000000), wk =   0.0013717
        k(   75) = (  -0.2357023   0.2357023   0.0785674), wk =   0.0013717
        k(   76) = (  -0.3142697   0.3142697   0.1571348), wk =   0.0013717
        k(   77) = (  -0.3928371   0.3928371   0.2357023), wk =   0.0013717
        k(   78) = (   0.2357023  -0.2357023  -0.3928371), wk =   0.0013717
        k(   79) = (   0.1571348  -0.1571348  -0.3142697), wk =   0.0013717
        k(   80) = (   0.0785674  -0.0785674  -0.2357023), wk =   0.0013717
        k(   81) = (   0.0000000   0.0000000  -0.1571348), wk =   0.0013717
        k(   82) = (   0.0785674   0.0785674  -0.0785674), wk =   0.0013717
        k(   83) = (   0.0000000   0.1571348   0.0000000), wk =   0.0013717
        k(   84) = (  -0.0785674   0.2357023   0.0785674), wk =   0.0013717
        k(   85) = (  -0.1571348   0.3142697   0.1571348), wk =   0.0013717
        k(   86) = (  -0.2357023   0.3928371   0.2357023), wk =   0.0013717
        k(   87) = (   0.3928371  -0.2357023  -0.3928371), wk =   0.0013717
        k(   88) = (   0.3142697  -0.1571348  -0.3142697), wk =   0.0013717
        k(   89) = (   0.2357023  -0.0785674  -0.2357023), wk =   0.0013717
        k(   90) = (   0.1571348  -0.0000000  -0.1571348), wk =   0.0013717
        k(   91) = (   0.1571348   0.0000000   0.0000000), wk =   0.0013717
        k(   92) = (   0.0785674   0.0785674   0.0785674), wk =   0.0013717
        k(   93) = (   0.0000000   0.1571348   0.1571348), wk =   0.0013717
        k(   94) = (  -0.0785674   0.2357023   0.2357023), wk =   0.0013717
        k(   95) = (  -0.1571348   0.3142697   0.3142697), wk =   0.0013717
        k(   96) = (   0.4714045  -0.3142697  -0.3142697), wk =   0.0013717
        k(   97) = (   0.3928371  -0.2357023  -0.2357023), wk =   0.0013717
        k(   98) = (   0.3142697  -0.1571348  -0.1571348), wk =   0.0013717
        k(   99) = (   0.2357023  -0.0785674  -0.0785674), wk =   0.0013717
        k(  100) = (   0.2357023  -0.0785674   0.0785674), wk =   0.0013717
        k(  101) = (   0.1571348   0.0000000   0.1571348), wk =   0.0013717
        k(  102) = (   0.0785674   0.0785674   0.2357023), wk =   0.0013717
        k(  103) = (   0.0000000   0.1571348   0.3142697), wk =   0.0013717
        k(  104) = (  -0.0785674   0.2357023   0.3928371), wk =   0.0013717
        k(  105) = (   0.5499719  -0.3928371  -0.2357023), wk =   0.0013717
        k(  106) = (   0.4714045  -0.3142697  -0.1571348), wk =   0.0013717
        k(  107) = (   0.3928371  -0.2357023  -0.0785674), wk =   0.0013717
        k(  108) = (   0.3142697  -0.1571348  -0.0000000), wk =   0.0013717
        k(  109) = (   0.3142697  -0.1571348   0.1571348), wk =   0.0013717
        k(  110) = (   0.2357023  -0.0785674   0.2357023), wk =   0.0013717
        k(  111) = (   0.1571348  -0.0000000   0.3142697), wk =   0.0013717
        k(  112) = (   0.0785674   0.0785674   0.3928371), wk =   0.0013717
        k(  113) = (   0.0000000   0.1571348   0.4714045), wk =   0.0013717
        k(  114) = (   0.6285394  -0.4714045  -0.1571348), wk =   0.0013717
        k(  115) = (   0.5499719  -0.3928371  -0.0785674), wk =   0.0013717
        k(  116) = (   0.4714045  -0.3142697   0.0000000), wk =   0.0013717
        k(  117) = (   0.3928371  -0.2357023   0.0785674), wk =   0.0013717
        k(  118) = (   0.3928371  -0.2357023   0.2357023), wk =   0.0013717
        k(  119) = (   0.3142697  -0.1571348   0.3142697), wk =   0.0013717
        k(  120) = (   0.2357023  -0.0785674   0.3928371), wk =   0.0013717
        k(  121) = (   0.1571348   0.0000000   0.4714045), wk =   0.0013717
        k(  122) = (   0.0785674   0.0785674   0.5499719), wk =   0.0013717
        k(  123) = (   0.7071068  -0.5499719  -0.0785674), wk =   0.0013717
        k(  124) = (   0.6285394  -0.4714045  -0.0000000), wk =   0.0013717
        k(  125) = (   0.5499719  -0.3928371   0.0785674), wk =   0.0013717
        k(  126) = (   0.4714045  -0.3142697   0.1571348), wk =   0.0013717
        k(  127) = (  -0.2357023   0.3928371  -0.3928371), wk =   0.0013717
        k(  128) = (  -0.3142697   0.4714045  -0.3142697), wk =   0.0013717
        k(  129) = (  -0.3928371   0.5499719  -0.2357023), wk =   0.0013717
        k(  130) = (  -0.4714045   0.6285394  -0.1571348), wk =   0.0013717
        k(  131) = (  -0.5499719   0.7071068  -0.0785674), wk =   0.0013717
        k(  132) = (   0.0785674   0.0785674  -0.7071068), wk =   0.0013717
        k(  133) = (   0.0000000   0.1571348  -0.6285394), wk =   0.0013717
        k(  134) = (  -0.0785674   0.2357023  -0.5499719), wk =   0.0013717
        k(  135) = (  -0.1571348   0.3142697  -0.4714045), wk =   0.0013717
        k(  136) = (  -0.1571348   0.3142697  -0.3142697), wk =   0.0013717
        k(  137) = (  -0.2357023   0.3928371  -0.2357023), wk =   0.0013717
        k(  138) = (  -0.3142697   0.4714045  -0.1571348), wk =   0.0013717
        k(  139) = (  -0.3928371   0.5499719  -0.0785674), wk =   0.0013717
        k(  140) = (  -0.4714045   0.6285394  -0.0000000), wk =   0.0013717
        k(  141) = (   0.1571348   0.0000000  -0.6285394), wk =   0.0013717
        k(  142) = (   0.0785674   0.0785674  -0.5499719), wk =   0.0013717
        k(  143) = (  -0.0000000   0.1571348  -0.4714045), wk =   0.0013717
        k(  144) = (  -0.0785674   0.2357023  -0.3928371), wk =   0.0013717
        k(  145) = (  -0.0785674   0.2357023  -0.2357023), wk =   0.0013717
        k(  146) = (  -0.1571348   0.3142697  -0.1571348), wk =   0.0013717
        k(  147) = (  -0.2357023   0.3928371  -0.0785674), wk =   0.0013717
        k(  148) = (  -0.3142697   0.4714045   0.0000000), wk =   0.0013717
        k(  149) = (  -0.3928371   0.5499719   0.0785674), wk =   0.0013717
        k(  150) = (   0.2357023  -0.0785674  -0.5499719), wk =   0.0013717
        k(  151) = (   0.1571348  -0.0000000  -0.4714045), wk =   0.0013717
        k(  152) = (   0.0785674   0.0785674  -0.3928371), wk =   0.0013717
        k(  153) = (   0.0000000   0.1571348  -0.3142697), wk =   0.0013717
        k(  154) = (  -0.0000000   0.1571348  -0.1571348), wk =   0.0013717
        k(  155) = (  -0.0785674   0.2357023  -0.0785674), wk =   0.0013717
        k(  156) = (  -0.1571348   0.3142697  -0.0000000), wk =   0.0013717
        k(  157) = (  -0.2357023   0.3928371   0.0785674), wk =   0.0013717
        k(  158) = (  -0.3142697   0.4714045   0.1571348), wk =   0.0013717
        k(  159) = (   0.3142697  -0.1571348  -0.4714045), wk =   0.0013717
        k(  160) = (   0.2357023  -0.0785674  -0.3928371), wk =   0.0013717
        k(  161) = (   0.1571348   0.0000000  -0.3142697), wk =   0.0013717
        k(  162) = (   0.0785674   0.0785674  -0.2357023), wk =   0.0013717
        k(  163) = (   0.1571348   0.1571348  -0.1571348), wk =   0.0013717
        k(  164) = (   0.0785674   0.2357023  -0.0785674), wk =   0.0013717
        k(  165) = (   0.0000000   0.3142697   0.0000000), wk =   0.0013717
        k(  166) = (  -0.0785674   0.3928371   0.0785674), wk =   0.0013717
        k(  167) = (  -0.1571348   0.4714045   0.1571348), wk =   0.0013717
        k(  168) = (   0.4714045  -0.1571348  -0.4714045), wk =   0.0013717
        k(  169) = (   0.3928371  -0.0785674  -0.3928371), wk =   0.0013717
        k(  170) = (   0.3142697   0.0000000  -0.3142697), wk =   0.0013717
        k(  171) = (   0.2357023   0.0785674  -0.2357023), wk =   0.0013717
        k(  172) = (   0.2357023   0.0785674  -0.0785674), wk =   0.0013717
        k(  173) = (   0.1571348   0.1571348   0.0000000), wk =   0.0013717
        k(  174) = (   0.0785674   0.2357023   0.0785674), wk =   0.0013717
        k(  175) = (   0.0000000   0.3142697   0.1571348), wk =   0.0013717
        k(  176) = (  -0.0785674   0.3928371   0.2357023), wk =   0.0013717
        k(  177) = (   0.5499719  -0.2357023  -0.3928371), wk =   0.0013717
        k(  178) = (   0.4714045  -0.1571348  -0.3142697), wk =   0.0013717
        k(  179) = (   0.3928371  -0.0785674  -0.2357023), wk =   0.0013717
        k(  180) = (   0.3142697  -0.0000000  -0.1571348), wk =   0.0013717
        k(  181) = (   0.3142697   0.0000000   0.0000000), wk =   0.0013717
        k(  182) = (   0.2357023   0.0785674   0.0785674), wk =   0.0013717
        k(  183) = (   0.1571348   0.1571348   0.1571348), wk =   0.0013717
        k(  184) = (   0.0785674   0.2357023   0.2357023), wk =   0.0013717
        k(  185) = (   0.0000000   0.3142697   0.3142697), wk =   0.0013717
        k(  186) = (   0.6285394  -0.3142697  -0.3142697), wk =   0.0013717
        k(  187) = (   0.5499719  -0.2357023  -0.2357023), wk =   0.0013717
        k(  188) = (   0.4714045  -0.1571348  -0.1571348), wk =   0.0013717
        k(  189) = (   0.3928371  -0.0785674  -0.0785674), wk =   0.0013717
        k(  190) = (   0.3928371  -0.0785674   0.0785674), wk =   0.0013717
        k(  191) = (   0.3142697  -0.0000000   0.1571348), wk =   0.0013717
        k(  192) = (   0.2357023   0.0785674   0.2357023), wk =   0.0013717
        k(  193) = (   0.1571348   0.1571348   0.3142697), wk =   0.0013717
        k(  194) = (   0.0785674   0.2357023   0.3928371), wk =   0.0013717
        k(  195) = (   0.7071068  -0.3928371  -0.2357023), wk =   0.0013717
        k(  196) = (   0.6285394  -0.3142697  -0.1571348), wk =   0.0013717
        k(  197) = (   0.5499719  -0.2357023  -0.0785674), wk =   0.0013717
        k(  198) = (   0.4714045  -0.1571348  -0.0000000), wk =   0.0013717
        k(  199) = (   0.4714045  -0.1571348   0.1571348), wk =   0.0013717
        k(  200) = (   0.3928371  -0.0785674   0.2357023), wk =   0.0013717
        k(  201) = (   0.3142697   0.0000000   0.3142697), wk =   0.0013717
        k(  202) = (   0.2357023   0.0785674   0.3928371), wk =   0.0013717
        k(  203) = (   0.1571348   0.1571348   0.4714045), wk =   0.0013717
        k(  204) = (   0.7856742  -0.4714045  -0.1571348), wk =   0.0013717
        k(  205) = (   0.7071068  -0.3928371  -0.0785674), wk =   0.0013717
        k(  206) = (   0.6285394  -0.3142697   0.0000000), wk =   0.0013717
        k(  207) = (   0.5499719  -0.2357023   0.0785674), wk =   0.0013717
        k(  208) = (  -0.1571348   0.4714045  -0.4714045), wk =   0.0013717
        k(  209) = (  -0.2357023   0.5499719  -0.3928371), wk =   0.0013717
        k(  210) = (  -0.3142697   0.6285394  -0.3142697), wk =   0.0013717
        k(  211) = (  -0.3928371   0.7071068  -0.2357023), wk =   0.0013717
        k(  212) = (  -0.4714045   0.7856742  -0.1571348), wk =   0.0013717
        k(  213) = (   0.1571348   0.1571348  -0.7856742), wk =   0.0013717
        k(  214) = (   0.0785674   0.2357023  -0.7071068), wk =   0.0013717
        k(  215) = (   0.0000000   0.3142697  -0.6285394), wk =   0.0013717
        k(  216) = (  -0.0785674   0.3928371  -0.5499719), wk =   0.0013717
        k(  217) = (  -0.0785674   0.3928371  -0.3928371), wk =   0.0013717
        k(  218) = (  -0.1571348   0.4714045  -0.3142697), wk =   0.0013717
        k(  219) = (  -0.2357023   0.5499719  -0.2357023), wk =   0.0013717
        k(  220) = (  -0.3142697   0.6285394  -0.1571348), wk =   0.0013717
        k(  221) = (  -0.3928371   0.7071068  -0.0785674), wk =   0.0013717
        k(  222) = (   0.2357023   0.0785674  -0.7071068), wk =   0.0013717
        k(  223) = (   0.1571348   0.1571348  -0.6285394), wk =   0.0013717
        k(  224) = (   0.0785674   0.2357023  -0.5499719), wk =   0.0013717
        k(  225) = (  -0.0000000   0.3142697  -0.4714045), wk =   0.0013717
        k(  226) = (   0.0000000   0.3142697  -0.3142697), wk =   0.0013717
        k(  227) = (  -0.0785674   0.3928371  -0.2357023), wk =   0.0013717
        k(  228) = (  -0.1571348   0.4714045  -0.1571348), wk =   0.0013717
        k(  229) = (  -0.2357023   0.5499719  -0.0785674), wk =   0.0013717
        k(  230) = (  -0.3142697   0.6285394   0.0000000), wk =   0.0013717
        k(  231) = (   0.3142697   0.0000000  -0.6285394), wk =   0.0013717
        k(  232) = (   0.2357023   0.0785674  -0.5499719), wk =   0.0013717
        k(  233) = (   0.1571348   0.1571348  -0.4714045), wk =   0.0013717
        k(  234) = (   0.0785674   0.2357023  -0.3928371), wk =   0.0013717
        k(  235) = (   0.0785674   0.2357023  -0.2357023), wk =   0.0013717
        k(  236) = (  -0.0000000   0.3142697  -0.1571348), wk =   0.0013717
        k(  237) = (  -0.0785674   0.3928371  -0.0785674), wk =   0.0013717
        k(  238) = (  -0.1571348   0.4714045  -0.0000000), wk =   0.0013717
        k(  239) = (  -0.2357023   0.5499719   0.0785674), wk =   0.0013717
        k(  240) = (   0.3928371  -0.0785674  -0.5499719), wk =   0.0013717
        k(  241) = (   0.3142697  -0.0000000  -0.4714045), wk =   0.0013717
        k(  242) = (   0.2357023   0.0785674  -0.3928371), wk =   0.0013717
        k(  243) = (   0.1571348   0.1571348  -0.3142697), wk =   0.0013717
        k(  244) = (   0.2357023   0.2357023  -0.2357023), wk =   0.0013717
        k(  245) = (   0.1571348   0.3142697  -0.1571348), wk =   0.0013717
        k(  246) = (   0.0785674   0.3928371  -0.0785674), wk =   0.0013717
        k(  247) = (   0.0000000   0.4714045   0.0000000), wk =   0.0013717
        k(  248) = (  -0.0785674   0.5499719   0.0785674), wk =   0.0013717
        k(  249) = (   0.5499719  -0.0785674  -0.5499719), wk =   0.0013717
        k(  250) = (   0.4714045  -0.0000000  -0.4714045), wk =   0.0013717
        k(  251) = (   0.3928371   0.0785674  -0.3928371), wk =   0.0013717
        k(  252) = (   0.3142697   0.1571348  -0.3142697), wk =   0.0013717
        k(  253) = (   0.3142697   0.1571348  -0.1571348), wk =   0.0013717
        k(  254) = (   0.2357023   0.2357023  -0.0785674), wk =   0.0013717
        k(  255) = (   0.1571348   0.3142697  -0.0000000), wk =   0.0013717
        k(  256) = (   0.0785674   0.3928371   0.0785674), wk =   0.0013717
        k(  257) = (   0.0000000   0.4714045   0.1571348), wk =   0.0013717
        k(  258) = (   0.6285394  -0.1571348  -0.4714045), wk =   0.0013717
        k(  259) = (   0.5499719  -0.0785674  -0.3928371), wk =   0.0013717
        k(  260) = (   0.4714045   0.0000000  -0.3142697), wk =   0.0013717
        k(  261) = (   0.3928371   0.0785674  -0.2357023), wk =   0.0013717
        k(  262) = (   0.3928371   0.0785674  -0.0785674), wk =   0.0013717
        k(  263) = (   0.3142697   0.1571348  -0.0000000), wk =   0.0013717
        k(  264) = (   0.2357023   0.2357023   0.0785674), wk =   0.0013717
        k(  265) = (   0.1571348   0.3142697   0.1571348), wk =   0.0013717
        k(  266) = (   0.0785674   0.3928371   0.2357023), wk =   0.0013717
        k(  267) = (   0.7071068  -0.2357023  -0.3928371), wk =   0.0013717
        k(  268) = (   0.6285394  -0.1571348  -0.3142697), wk =   0.0013717
        k(  269) = (   0.5499719  -0.0785674  -0.2357023), wk =   0.0013717
        k(  270) = (   0.4714045  -0.0000000  -0.1571348), wk =   0.0013717
        k(  271) = (   0.4714045   0.0000000   0.0000000), wk =   0.0013717
        k(  272) = (   0.3928371   0.0785674   0.0785674), wk =   0.0013717
        k(  273) = (   0.3142697   0.1571348   0.1571348), wk =   0.0013717
        k(  274) = (   0.2357023   0.2357023   0.2357023), wk =   0.0013717
        k(  275) = (   0.1571348   0.3142697   0.3142697), wk =   0.0013717
        k(  276) = (   0.7856742  -0.3142697  -0.3142697), wk =   0.0013717
        k(  277) = (   0.7071068  -0.2357023  -0.2357023), wk =   0.0013717
        k(  278) = (   0.6285394  -0.1571348  -0.1571348), wk =   0.0013717
        k(  279) = (   0.5499719  -0.0785674  -0.0785674), wk =   0.0013717
        k(  280) = (   0.5499719  -0.0785674   0.0785674), wk =   0.0013717
        k(  281) = (   0.4714045   0.0000000   0.1571348), wk =   0.0013717
        k(  282) = (   0.3928371   0.0785674   0.2357023), wk =   0.0013717
        k(  283) = (   0.3142697   0.1571348   0.3142697), wk =   0.0013717
        k(  284) = (   0.2357023   0.2357023   0.3928371), wk =   0.0013717
        k(  285) = (   0.8642416  -0.3928371  -0.2357023), wk =   0.0013717
        k(  286) = (   0.7856742  -0.3142697  -0.1571348), wk =   0.0013717
        k(  287) = (   0.7071068  -0.2357023  -0.0785674), wk =   0.0013717
        k(  288) = (   0.6285394  -0.1571348  -0.0000000), wk =   0.0013717
        k(  289) = (  -0.0785674   0.5499719  -0.5499719), wk =   0.0013717
        k(  290) = (  -0.1571348   0.6285394  -0.4714045), wk =   0.0013717
        k(  291) = (  -0.2357023   0.7071068  -0.3928371), wk =   0.0013717
        k(  292) = (  -0.3142697   0.7856742  -0.3142697), wk =   0.0013717
        k(  293) = (  -0.3928371   0.8642416  -0.2357023), wk =   0.0013717
        k(  294) = (   0.2357023   0.2357023  -0.8642416), wk =   0.0013717
        k(  295) = (   0.1571348   0.3142697  -0.7856742), wk =   0.0013717
        k(  296) = (   0.0785674   0.3928371  -0.7071068), wk =   0.0013717
        k(  297) = (   0.0000000   0.4714045  -0.6285394), wk =   0.0013717
        k(  298) = (  -0.0000000   0.4714045  -0.4714045), wk =   0.0013717
        k(  299) = (  -0.0785674   0.5499719  -0.3928371), wk =   0.0013717
        k(  300) = (  -0.1571348   0.6285394  -0.3142697), wk =   0.0013717
        k(  301) = (  -0.2357023   0.7071068  -0.2357023), wk =   0.0013717
        k(  302) = (  -0.3142697   0.7856742  -0.1571348), wk =   0.0013717
        k(  303) = (   0.3142697   0.1571348  -0.7856742), wk =   0.0013717
        k(  304) = (   0.2357023   0.2357023  -0.7071068), wk =   0.0013717
        k(  305) = (   0.1571348   0.3142697  -0.6285394), wk =   0.0013717
        k(  306) = (   0.0785674   0.3928371  -0.5499719), wk =   0.0013717
        k(  307) = (   0.0785674   0.3928371  -0.3928371), wk =   0.0013717
        k(  308) = (   0.0000000   0.4714045  -0.3142697), wk =   0.0013717
        k(  309) = (  -0.0785674   0.5499719  -0.2357023), wk =   0.0013717
        k(  310) = (  -0.1571348   0.6285394  -0.1571348), wk =   0.0013717
        k(  311) = (  -0.2357023   0.7071068  -0.0785674), wk =   0.0013717
        k(  312) = (   0.3928371   0.0785674  -0.7071068), wk =   0.0013717
        k(  313) = (   0.3142697   0.1571348  -0.6285394), wk =   0.0013717
        k(  314) = (   0.2357023   0.2357023  -0.5499719), wk =   0.0013717
        k(  315) = (   0.1571348   0.3142697  -0.4714045), wk =   0.0013717
        k(  316) = (   0.1571348   0.3142697  -0.3142697), wk =   0.0013717
        k(  317) = (   0.0785674   0.3928371  -0.2357023), wk =   0.0013717
        k(  318) = (  -0.0000000   0.4714045  -0.1571348), wk =   0.0013717
        k(  319) = (  -0.0785674   0.5499719  -0.0785674), wk =   0.0013717
        k(  320) = (  -0.1571348   0.6285394  -0.0000000), wk =   0.0013717
        k(  321) = (   0.4714045   0.0000000  -0.6285394), wk =   0.0013717
        k(  322) = (   0.3928371   0.0785674  -0.5499719), wk =   0.0013717
        k(  323) = (   0.3142697   0.1571348  -0.4714045), wk =   0.0013717
        k(  324) = (   0.2357023   0.2357023  -0.3928371), wk =   0.0013717
        k(  325) = (   0.3142697   0.3142697  -0.3142697), wk =   0.0013717
        k(  326) = (   0.2357023   0.3928371  -0.2357023), wk =   0.0013717
        k(  327) = (   0.1571348   0.4714045  -0.1571348), wk =   0.0013717
        k(  328) = (   0.0785674   0.5499719  -0.0785674), wk =   0.0013717
        k(  329) = (   0.0000000   0.6285394   0.0000000), wk =   0.0013717
        k(  330) = (   0.6285394   0.0000000  -0.6285394), wk =   0.0013717
        k(  331) = (   0.5499719   0.0785674  -0.5499719), wk =   0.0013717
        k(  332) = (   0.4714045   0.1571348  -0.4714045), wk =   0.0013717
        k(  333) = (   0.3928371   0.2357023  -0.3928371), wk =   0.0013717
        k(  334) = (   0.3928371   0.2357023  -0.2357023), wk =   0.0013717
        k(  335) = (   0.3142697   0.3142697  -0.1571348), wk =   0.0013717
        k(  336) = (   0.2357023   0.3928371  -0.0785674), wk =   0.0013717
        k(  337) = (   0.1571348   0.4714045   0.0000000), wk =   0.0013717
        k(  338) = (   0.0785674   0.5499719   0.0785674), wk =   0.0013717
        k(  339) = (   0.7071068  -0.0785674  -0.5499719), wk =   0.0013717
        k(  340) = (   0.6285394  -0.0000000  -0.4714045), wk =   0.0013717
        k(  341) = (   0.5499719   0.0785674  -0.3928371), wk =   0.0013717
        k(  342) = (   0.4714045   0.1571348  -0.3142697), wk =   0.0013717
        k(  343) = (   0.4714045   0.1571348  -0.1571348), wk =   0.0013717
        k(  344) = (   0.3928371   0.2357023  -0.0785674), wk =   0.0013717
        k(  345) = (   0.3142697   0.3142697   0.0000000), wk =   0.0013717
        k(  346) = (   0.2357023   0.3928371   0.0785674), wk =   0.0013717
        k(  347) = (   0.1571348   0.4714045   0.1571348), wk =   0.0013717
        k(  348) = (   0.7856742  -0.1571348  -0.4714045), wk =   0.0013717
        k(  349) = (   0.7071068  -0.0785674  -0.3928371), wk =   0.0013717
        k(  350) = (   0.6285394   0.0000000  -0.3142697), wk =   0.0013717
        k(  351) = (   0.5499719   0.0785674  -0.2357023), wk =   0.0013717
        k(  352) = (   0.5499719   0.0785674  -0.0785674), wk =   0.0013717
        k(  353) = (   0.4714045   0.1571348   0.0000000), wk =   0.0013717
        k(  354) = (   0.3928371   0.2357023   0.0785674), wk =   0.0013717
        k(  355) = (   0.3142697   0.3142697   0.1571348), wk =   0.0013717
        k(  356) = (   0.2357023   0.3928371   0.2357023), wk =   0.0013717
        k(  357) = (   0.8642416  -0.2357023  -0.3928371), wk =   0.0013717
        k(  358) = (   0.7856742  -0.1571348  -0.3142697), wk =   0.0013717
        k(  359) = (   0.7071068  -0.0785674  -0.2357023), wk =   0.0013717
        k(  360) = (   0.6285394  -0.0000000  -0.1571348), wk =   0.0013717
        k(  361) = (   0.6285394   0.0000000   0.0000000), wk =   0.0013717
        k(  362) = (   0.5499719   0.0785674   0.0785674), wk =   0.0013717
        k(  363) = (   0.4714045   0.1571348   0.1571348), wk =   0.0013717
        k(  364) = (   0.3928371   0.2357023   0.2357023), wk =   0.0013717
        k(  365) = (   0.3142697   0.3142697   0.3142697), wk =   0.0013717
        k(  366) = (   0.9428090  -0.3142697  -0.3142697), wk =   0.0013717
        k(  367) = (   0.8642416  -0.2357023  -0.2357023), wk =   0.0013717
        k(  368) = (   0.7856742  -0.1571348  -0.1571348), wk =   0.0013717
        k(  369) = (   0.7071068  -0.0785674  -0.0785674), wk =   0.0013717
        k(  370) = (   0.0000000   0.6285394  -0.6285394), wk =   0.0013717
        k(  371) = (  -0.0785674   0.7071068  -0.5499719), wk =   0.0013717
        k(  372) = (  -0.1571348   0.7856742  -0.4714045), wk =   0.0013717
        k(  373) = (  -0.2357023   0.8642416  -0.3928371), wk =   0.0013717
        k(  374) = (  -0.3142697   0.9428090  -0.3142697), wk =   0.0013717
        k(  375) = (   0.3142697   0.3142697  -0.9428090), wk =   0.0013717
        k(  376) = (   0.2357023   0.3928371  -0.8642416), wk =   0.0013717
        k(  377) = (   0.1571348   0.4714045  -0.7856742), wk =   0.0013717
        k(  378) = (   0.0785674   0.5499719  -0.7071068), wk =   0.0013717
        k(  379) = (   0.0785674   0.5499719  -0.5499719), wk =   0.0013717
        k(  380) = (  -0.0000000   0.6285394  -0.4714045), wk =   0.0013717
        k(  381) = (  -0.0785674   0.7071068  -0.3928371), wk =   0.0013717
        k(  382) = (  -0.1571348   0.7856742  -0.3142697), wk =   0.0013717
        k(  383) = (  -0.2357023   0.8642416  -0.2357023), wk =   0.0013717
        k(  384) = (   0.3928371   0.2357023  -0.8642416), wk =   0.0013717
        k(  385) = (   0.3142697   0.3142697  -0.7856742), wk =   0.0013717
        k(  386) = (   0.2357023   0.3928371  -0.7071068), wk =   0.0013717
        k(  387) = (   0.1571348   0.4714045  -0.6285394), wk =   0.0013717
        k(  388) = (   0.1571348   0.4714045  -0.4714045), wk =   0.0013717
        k(  389) = (   0.0785674   0.5499719  -0.3928371), wk =   0.0013717
        k(  390) = (   0.0000000   0.6285394  -0.3142697), wk =   0.0013717
        k(  391) = (  -0.0785674   0.7071068  -0.2357023), wk =   0.0013717
        k(  392) = (  -0.1571348   0.7856742  -0.1571348), wk =   0.0013717
        k(  393) = (   0.4714045   0.1571348  -0.7856742), wk =   0.0013717
        k(  394) = (   0.3928371   0.2357023  -0.7071068), wk =   0.0013717
        k(  395) = (   0.3142697   0.3142697  -0.6285394), wk =   0.0013717
        k(  396) = (   0.2357023   0.3928371  -0.5499719), wk =   0.0013717
        k(  397) = (   0.2357023   0.3928371  -0.3928371), wk =   0.0013717
        k(  398) = (   0.1571348   0.4714045  -0.3142697), wk =   0.0013717
        k(  399) = (   0.0785674   0.5499719  -0.2357023), wk =   0.0013717
        k(  400) = (  -0.0000000   0.6285394  -0.1571348), wk =   0.0013717
        k(  401) = (  -0.0785674   0.7071068  -0.0785674), wk =   0.0013717
        k(  402) = (   0.5499719   0.0785674  -0.7071068), wk =   0.0013717
        k(  403) = (   0.4714045   0.1571348  -0.6285394), wk =   0.0013717
        k(  404) = (   0.3928371   0.2357023  -0.5499719), wk =   0.0013717
        k(  405) = (   0.3142697   0.3142697  -0.4714045), wk =   0.0013717
        k(  406) = (  -0.3142697  -0.3142697   0.3142697), wk =   0.0013717
        k(  407) = (  -0.3928371  -0.2357023   0.3928371), wk =   0.0013717
        k(  408) = (  -0.4714045  -0.1571348   0.4714045), wk =   0.0013717
        k(  409) = (  -0.5499719  -0.0785674   0.5499719), wk =   0.0013717
        k(  410) = (  -0.6285394   0.0000000   0.6285394), wk =   0.0013717
        k(  411) = (   0.0000000  -0.6285394   0.0000000), wk =   0.0013717
        k(  412) = (  -0.0785674  -0.5499719   0.0785674), wk =   0.0013717
        k(  413) = (  -0.1571348  -0.4714045   0.1571348), wk =   0.0013717
        k(  414) = (  -0.2357023  -0.3928371   0.2357023), wk =   0.0013717
        k(  415) = (  -0.2357023  -0.3928371   0.3928371), wk =   0.0013717
        k(  416) = (  -0.3142697  -0.3142697   0.4714045), wk =   0.0013717
        k(  417) = (  -0.3928371  -0.2357023   0.5499719), wk =   0.0013717
        k(  418) = (  -0.4714045  -0.1571348   0.6285394), wk =   0.0013717
        k(  419) = (  -0.5499719  -0.0785674   0.7071068), wk =   0.0013717
        k(  420) = (   0.0785674  -0.7071068   0.0785674), wk =   0.0013717
        k(  421) = (   0.0000000  -0.6285394   0.1571348), wk =   0.0013717
        k(  422) = (  -0.0785674  -0.5499719   0.2357023), wk =   0.0013717
        k(  423) = (  -0.1571348  -0.4714045   0.3142697), wk =   0.0013717
        k(  424) = (  -0.1571348  -0.4714045   0.4714045), wk =   0.0013717
        k(  425) = (  -0.2357023  -0.3928371   0.5499719), wk =   0.0013717
        k(  426) = (  -0.3142697  -0.3142697   0.6285394), wk =   0.0013717
        k(  427) = (  -0.3928371  -0.2357023   0.7071068), wk =   0.0013717
        k(  428) = (  -0.4714045  -0.1571348   0.7856742), wk =   0.0013717
        k(  429) = (   0.1571348  -0.7856742   0.1571348), wk =   0.0013717
        k(  430) = (   0.0785674  -0.7071068   0.2357023), wk =   0.0013717
        k(  431) = (   0.0000000  -0.6285394   0.3142697), wk =   0.0013717
        k(  432) = (  -0.0785674  -0.5499719   0.3928371), wk =   0.0013717
        k(  433) = (  -0.0785674  -0.5499719   0.5499719), wk =   0.0013717
        k(  434) = (  -0.1571348  -0.4714045   0.6285394), wk =   0.0013717
        k(  435) = (  -0.2357023  -0.3928371   0.7071068), wk =   0.0013717
        k(  436) = (  -0.3142697  -0.3142697   0.7856742), wk =   0.0013717
        k(  437) = (  -0.3928371  -0.2357023   0.8642416), wk =   0.0013717
        k(  438) = (   0.2357023  -0.8642416   0.2357023), wk =   0.0013717
        k(  439) = (   0.1571348  -0.7856742   0.3142697), wk =   0.0013717
        k(  440) = (   0.0785674  -0.7071068   0.3928371), wk =   0.0013717
        k(  441) = (   0.0000000  -0.6285394   0.4714045), wk =   0.0013717
        k(  442) = (   0.0000000  -0.6285394   0.6285394), wk =   0.0013717
        k(  443) = (  -0.0785674  -0.5499719   0.7071068), wk =   0.0013717
        k(  444) = (  -0.1571348  -0.4714045   0.7856742), wk =   0.0013717
        k(  445) = (  -0.2357023  -0.3928371   0.8642416), wk =   0.0013717
        k(  446) = (  -0.3142697  -0.3142697   0.9428090), wk =   0.0013717
        k(  447) = (   0.3142697  -0.9428090   0.3142697), wk =   0.0013717
        k(  448) = (   0.2357023  -0.8642416   0.3928371), wk =   0.0013717
        k(  449) = (   0.1571348  -0.7856742   0.4714045), wk =   0.0013717
        k(  450) = (   0.0785674  -0.7071068   0.5499719), wk =   0.0013717
        k(  451) = (  -0.6285394   0.0000000   0.0000000), wk =   0.0013717
        k(  452) = (  -0.7071068   0.0785674   0.0785674), wk =   0.0013717
        k(  453) = (  -0.7856742   0.1571348   0.1571348), wk =   0.0013717
        k(  454) = (  -0.8642416   0.2357023   0.2357023), wk =   0.0013717
        k(  455) = (  -0.9428090   0.3142697   0.3142697), wk =   0.0013717
        k(  456) = (  -0.3142697  -0.3142697  -0.3142697), wk =   0.0013717
        k(  457) = (  -0.3928371  -0.2357023  -0.2357023), wk =   0.0013717
        k(  458) = (  -0.4714045  -0.1571348  -0.1571348), wk =   0.0013717
        k(  459) = (  -0.5499719  -0.0785674  -0.0785674), wk =   0.0013717
        k(  460) = (  -0.5499719  -0.0785674   0.0785674), wk =   0.0013717
        k(  461) = (  -0.6285394   0.0000000   0.1571348), wk =   0.0013717
        k(  462) = (  -0.7071068   0.0785674   0.2357023), wk =   0.0013717
        k(  463) = (  -0.7856742   0.1571348   0.3142697), wk =   0.0013717
        k(  464) = (  -0.8642416   0.2357023   0.3928371), wk =   0.0013717
        k(  465) = (  -0.2357023  -0.3928371  -0.2357023), wk =   0.0013717
        k(  466) = (  -0.3142697  -0.3142697  -0.1571348), wk =   0.0013717
        k(  467) = (  -0.3928371  -0.2357023  -0.0785674), wk =   0.0013717
        k(  468) = (  -0.4714045  -0.1571348  -0.0000000), wk =   0.0013717
        k(  469) = (  -0.4714045  -0.1571348   0.1571348), wk =   0.0013717
        k(  470) = (  -0.5499719  -0.0785674   0.2357023), wk =   0.0013717
        k(  471) = (  -0.6285394   0.0000000   0.3142697), wk =   0.0013717
        k(  472) = (  -0.7071068   0.0785674   0.3928371), wk =   0.0013717
        k(  473) = (  -0.7856742   0.1571348   0.4714045), wk =   0.0013717
        k(  474) = (  -0.1571348  -0.4714045  -0.1571348), wk =   0.0013717
        k(  475) = (  -0.2357023  -0.3928371  -0.0785674), wk =   0.0013717
        k(  476) = (  -0.3142697  -0.3142697   0.0000000), wk =   0.0013717
        k(  477) = (  -0.3928371  -0.2357023   0.0785674), wk =   0.0013717
        k(  478) = (  -0.3928371  -0.2357023   0.2357023), wk =   0.0013717
        k(  479) = (  -0.4714045  -0.1571348   0.3142697), wk =   0.0013717
        k(  480) = (  -0.5499719  -0.0785674   0.3928371), wk =   0.0013717
        k(  481) = (  -0.6285394   0.0000000   0.4714045), wk =   0.0013717
        k(  482) = (  -0.7071068   0.0785674   0.5499719), wk =   0.0013717
        k(  483) = (  -0.0785674  -0.5499719  -0.0785674), wk =   0.0013717
        k(  484) = (  -0.1571348  -0.4714045  -0.0000000), wk =   0.0013717
        k(  485) = (  -0.2357023  -0.3928371   0.0785674), wk =   0.0013717
        k(  486) = (  -0.3142697  -0.3142697   0.1571348), wk =   0.0013717
        k(  487) = (  -0.2357023  -0.2357023   0.2357023), wk =   0.0013717
        k(  488) = (  -0.3142697  -0.1571348   0.3142697), wk =   0.0013717
        k(  489) = (  -0.3928371  -0.0785674   0.3928371), wk =   0.0013717
        k(  490) = (  -0.4714045  -0.0000000   0.4714045), wk =   0.0013717
        k(  491) = (  -0.5499719   0.0785674   0.5499719), wk =   0.0013717
        k(  492) = (   0.0785674  -0.5499719  -0.0785674), wk =   0.0013717
        k(  493) = (   0.0000000  -0.4714045   0.0000000), wk =   0.0013717
        k(  494) = (  -0.0785674  -0.3928371   0.0785674), wk =   0.0013717
        k(  495) = (  -0.1571348  -0.3142697   0.1571348), wk =   0.0013717
        k(  496) = (  -0.1571348  -0.3142697   0.3142697), wk =   0.0013717
        k(  497) = (  -0.2357023  -0.2357023   0.3928371), wk =   0.0013717
        k(  498) = (  -0.3142697  -0.1571348   0.4714045), wk =   0.0013717
        k(  499) = (  -0.3928371  -0.0785674   0.5499719), wk =   0.0013717
        k(  500) = (  -0.4714045  -0.0000000   0.6285394), wk =   0.0013717
        k(  501) = (   0.1571348  -0.6285394   0.0000000), wk =   0.0013717
        k(  502) = (   0.0785674  -0.5499719   0.0785674), wk =   0.0013717
        k(  503) = (  -0.0000000  -0.4714045   0.1571348), wk =   0.0013717
        k(  504) = (  -0.0785674  -0.3928371   0.2357023), wk =   0.0013717
        k(  505) = (  -0.0785674  -0.3928371   0.3928371), wk =   0.0013717
        k(  506) = (  -0.1571348  -0.3142697   0.4714045), wk =   0.0013717
        k(  507) = (  -0.2357023  -0.2357023   0.5499719), wk =   0.0013717
        k(  508) = (  -0.3142697  -0.1571348   0.6285394), wk =   0.0013717
        k(  509) = (  -0.3928371  -0.0785674   0.7071068), wk =   0.0013717
        k(  510) = (   0.2357023  -0.7071068   0.0785674), wk =   0.0013717
        k(  511) = (   0.1571348  -0.6285394   0.1571348), wk =   0.0013717
        k(  512) = (   0.0785674  -0.5499719   0.2357023), wk =   0.0013717
        k(  513) = (  -0.0000000  -0.4714045   0.3142697), wk =   0.0013717
        k(  514) = (  -0.0000000  -0.4714045   0.4714045), wk =   0.0013717
        k(  515) = (  -0.0785674  -0.3928371   0.5499719), wk =   0.0013717
        k(  516) = (  -0.1571348  -0.3142697   0.6285394), wk =   0.0013717
        k(  517) = (  -0.2357023  -0.2357023   0.7071068), wk =   0.0013717
        k(  518) = (  -0.3142697  -0.1571348   0.7856742), wk =   0.0013717
        k(  519) = (   0.3142697  -0.7856742   0.1571348), wk =   0.0013717
        k(  520) = (   0.2357023  -0.7071068   0.2357023), wk =   0.0013717
        k(  521) = (   0.1571348  -0.6285394   0.3142697), wk =   0.0013717
        k(  522) = (   0.0785674  -0.5499719   0.3928371), wk =   0.0013717
        k(  523) = (   0.0785674  -0.5499719   0.5499719), wk =   0.0013717
        k(  524) = (  -0.0000000  -0.4714045   0.6285394), wk =   0.0013717
        k(  525) = (  -0.0785674  -0.3928371   0.7071068), wk =   0.0013717
        k(  526) = (  -0.1571348  -0.3142697   0.7856742), wk =   0.0013717
        k(  527) = (  -0.2357023  -0.2357023   0.8642416), wk =   0.0013717
        k(  528) = (   0.3928371  -0.8642416   0.2357023), wk =   0.0013717
        k(  529) = (   0.3142697  -0.7856742   0.3142697), wk =   0.0013717
        k(  530) = (   0.2357023  -0.7071068   0.3928371), wk =   0.0013717
        k(  531) = (   0.1571348  -0.6285394   0.4714045), wk =   0.0013717
        k(  532) = (  -0.5499719   0.0785674  -0.0785674), wk =   0.0013717
        k(  533) = (  -0.6285394   0.1571348   0.0000000), wk =   0.0013717
        k(  534) = (  -0.7071068   0.2357023   0.0785674), wk =   0.0013717
        k(  535) = (  -0.7856742   0.3142697   0.1571348), wk =   0.0013717
        k(  536) = (  -0.8642416   0.3928371   0.2357023), wk =   0.0013717
        k(  537) = (  -0.2357023  -0.2357023  -0.3928371), wk =   0.0013717
        k(  538) = (  -0.3142697  -0.1571348  -0.3142697), wk =   0.0013717
        k(  539) = (  -0.3928371  -0.0785674  -0.2357023), wk =   0.0013717
        k(  540) = (  -0.4714045  -0.0000000  -0.1571348), wk =   0.0013717
        k(  541) = (  -0.4714045   0.0000000   0.0000000), wk =   0.0013717
        k(  542) = (  -0.5499719   0.0785674   0.0785674), wk =   0.0013717
        k(  543) = (  -0.6285394   0.1571348   0.1571348), wk =   0.0013717
        k(  544) = (  -0.7071068   0.2357023   0.2357023), wk =   0.0013717
        k(  545) = (  -0.7856742   0.3142697   0.3142697), wk =   0.0013717
        k(  546) = (  -0.1571348  -0.3142697  -0.3142697), wk =   0.0013717
        k(  547) = (  -0.2357023  -0.2357023  -0.2357023), wk =   0.0013717
        k(  548) = (  -0.3142697  -0.1571348  -0.1571348), wk =   0.0013717
        k(  549) = (  -0.3928371  -0.0785674  -0.0785674), wk =   0.0013717
        k(  550) = (  -0.3928371  -0.0785674   0.0785674), wk =   0.0013717
        k(  551) = (  -0.4714045  -0.0000000   0.1571348), wk =   0.0013717
        k(  552) = (  -0.5499719   0.0785674   0.2357023), wk =   0.0013717
        k(  553) = (  -0.6285394   0.1571348   0.3142697), wk =   0.0013717
        k(  554) = (  -0.7071068   0.2357023   0.3928371), wk =   0.0013717
        k(  555) = (  -0.0785674  -0.3928371  -0.2357023), wk =   0.0013717
        k(  556) = (  -0.1571348  -0.3142697  -0.1571348), wk =   0.0013717
        k(  557) = (  -0.2357023  -0.2357023  -0.0785674), wk =   0.0013717
        k(  558) = (  -0.3142697  -0.1571348   0.0000000), wk =   0.0013717
        k(  559) = (  -0.3142697  -0.1571348   0.1571348), wk =   0.0013717
        k(  560) = (  -0.3928371  -0.0785674   0.2357023), wk =   0.0013717
        k(  561) = (  -0.4714045  -0.0000000   0.3142697), wk =   0.0013717
        k(  562) = (  -0.5499719   0.0785674   0.3928371), wk =   0.0013717
        k(  563) = (  -0.6285394   0.1571348   0.4714045), wk =   0.0013717
        k(  564) = (  -0.0000000  -0.4714045  -0.1571348), wk =   0.0013717
        k(  565) = (  -0.0785674  -0.3928371  -0.0785674), wk =   0.0013717
        k(  566) = (  -0.1571348  -0.3142697   0.0000000), wk =   0.0013717
        k(  567) = (  -0.2357023  -0.2357023   0.0785674), wk =   0.0013717
        k(  568) = (  -0.1571348  -0.1571348   0.1571348), wk =   0.0013717
        k(  569) = (  -0.2357023  -0.0785674   0.2357023), wk =   0.0013717
        k(  570) = (  -0.3142697   0.0000000   0.3142697), wk =   0.0013717
        k(  571) = (  -0.3928371   0.0785674   0.3928371), wk =   0.0013717
        k(  572) = (  -0.4714045   0.1571348   0.4714045), wk =   0.0013717
        k(  573) = (   0.1571348  -0.4714045  -0.1571348), wk =   0.0013717
        k(  574) = (   0.0785674  -0.3928371  -0.0785674), wk =   0.0013717
        k(  575) = (   0.0000000  -0.3142697   0.0000000), wk =   0.0013717
        k(  576) = (  -0.0785674  -0.2357023   0.0785674), wk =   0.0013717
        k(  577) = (  -0.0785674  -0.2357023   0.2357023), wk =   0.0013717
        k(  578) = (  -0.1571348  -0.1571348   0.3142697), wk =   0.0013717
        k(  579) = (  -0.2357023  -0.0785674   0.3928371), wk =   0.0013717
        k(  580) = (  -0.3142697   0.0000000   0.4714045), wk =   0.0013717
        k(  581) = (  -0.3928371   0.0785674   0.5499719), wk =   0.0013717
        k(  582) = (   0.2357023  -0.5499719  -0.0785674), wk =   0.0013717
        k(  583) = (   0.1571348  -0.4714045  -0.0000000), wk =   0.0013717
        k(  584) = (   0.0785674  -0.3928371   0.0785674), wk =   0.0013717
        k(  585) = (   0.0000000  -0.3142697   0.1571348), wk =   0.0013717
        k(  586) = (   0.0000000  -0.3142697   0.3142697), wk =   0.0013717
        k(  587) = (  -0.0785674  -0.2357023   0.3928371), wk =   0.0013717
        k(  588) = (  -0.1571348  -0.1571348   0.4714045), wk =   0.0013717
        k(  589) = (  -0.2357023  -0.0785674   0.5499719), wk =   0.0013717
        k(  590) = (  -0.3142697   0.0000000   0.6285394), wk =   0.0013717
        k(  591) = (   0.3142697  -0.6285394   0.0000000), wk =   0.0013717
        k(  592) = (   0.2357023  -0.5499719   0.0785674), wk =   0.0013717
        k(  593) = (   0.1571348  -0.4714045   0.1571348), wk =   0.0013717
        k(  594) = (   0.0785674  -0.3928371   0.2357023), wk =   0.0013717
        k(  595) = (   0.0785674  -0.3928371   0.3928371), wk =   0.0013717
        k(  596) = (   0.0000000  -0.3142697   0.4714045), wk =   0.0013717
        k(  597) = (  -0.0785674  -0.2357023   0.5499719), wk =   0.0013717
        k(  598) = (  -0.1571348  -0.1571348   0.6285394), wk =   0.0013717
        k(  599) = (  -0.2357023  -0.0785674   0.7071068), wk =   0.0013717
        k(  600) = (   0.3928371  -0.7071068   0.0785674), wk =   0.0013717
        k(  601) = (   0.3142697  -0.6285394   0.1571348), wk =   0.0013717
        k(  602) = (   0.2357023  -0.5499719   0.2357023), wk =   0.0013717
        k(  603) = (   0.1571348  -0.4714045   0.3142697), wk =   0.0013717
        k(  604) = (   0.1571348  -0.4714045   0.4714045), wk =   0.0013717
        k(  605) = (   0.0785674  -0.3928371   0.5499719), wk =   0.0013717
        k(  606) = (   0.0000000  -0.3142697   0.6285394), wk =   0.0013717
        k(  607) = (  -0.0785674  -0.2357023   0.7071068), wk =   0.0013717
        k(  608) = (  -0.1571348  -0.1571348   0.7856742), wk =   0.0013717
        k(  609) = (   0.4714045  -0.7856742   0.1571348), wk =   0.0013717
        k(  610) = (   0.3928371  -0.7071068   0.2357023), wk =   0.0013717
        k(  611) = (   0.3142697  -0.6285394   0.3142697), wk =   0.0013717
        k(  612) = (   0.2357023  -0.5499719   0.3928371), wk =   0.0013717
        k(  613) = (  -0.4714045   0.1571348  -0.1571348), wk =   0.0013717
        k(  614) = (  -0.5499719   0.2357023  -0.0785674), wk =   0.0013717
        k(  615) = (  -0.6285394   0.3142697   0.0000000), wk =   0.0013717
        k(  616) = (  -0.7071068   0.3928371   0.0785674), wk =   0.0013717
        k(  617) = (  -0.7856742   0.4714045   0.1571348), wk =   0.0013717
        k(  618) = (  -0.1571348  -0.1571348  -0.4714045), wk =   0.0013717
        k(  619) = (  -0.2357023  -0.0785674  -0.3928371), wk =   0.0013717
        k(  620) = (  -0.3142697   0.0000000  -0.3142697), wk =   0.0013717
        k(  621) = (  -0.3928371   0.0785674  -0.2357023), wk =   0.0013717
        k(  622) = (  -0.3928371   0.0785674  -0.0785674), wk =   0.0013717
        k(  623) = (  -0.4714045   0.1571348  -0.0000000), wk =   0.0013717
        k(  624) = (  -0.5499719   0.2357023   0.0785674), wk =   0.0013717
        k(  625) = (  -0.6285394   0.3142697   0.1571348), wk =   0.0013717
        k(  626) = (  -0.7071068   0.3928371   0.2357023), wk =   0.0013717
        k(  627) = (  -0.0785674  -0.2357023  -0.3928371), wk =   0.0013717
        k(  628) = (  -0.1571348  -0.1571348  -0.3142697), wk =   0.0013717
        k(  629) = (  -0.2357023  -0.0785674  -0.2357023), wk =   0.0013717
        k(  630) = (  -0.3142697   0.0000000  -0.1571348), wk =   0.0013717
        k(  631) = (  -0.3142697   0.0000000   0.0000000), wk =   0.0013717
        k(  632) = (  -0.3928371   0.0785674   0.0785674), wk =   0.0013717
        k(  633) = (  -0.4714045   0.1571348   0.1571348), wk =   0.0013717
        k(  634) = (  -0.5499719   0.2357023   0.2357023), wk =   0.0013717
        k(  635) = (  -0.6285394   0.3142697   0.3142697), wk =   0.0013717
        k(  636) = (   0.0000000  -0.3142697  -0.3142697), wk =   0.0013717
        k(  637) = (  -0.0785674  -0.2357023  -0.2357023), wk =   0.0013717
        k(  638) = (  -0.1571348  -0.1571348  -0.1571348), wk =   0.0013717
        k(  639) = (  -0.2357023  -0.0785674  -0.0785674), wk =   0.0013717
        k(  640) = (  -0.2357023  -0.0785674   0.0785674), wk =   0.0013717
        k(  641) = (  -0.3142697   0.0000000   0.1571348), wk =   0.0013717
        k(  642) = (  -0.3928371   0.0785674   0.2357023), wk =   0.0013717
        k(  643) = (  -0.4714045   0.1571348   0.3142697), wk =   0.0013717
        k(  644) = (  -0.5499719   0.2357023   0.3928371), wk =   0.0013717
        k(  645) = (   0.0785674  -0.3928371  -0.2357023), wk =   0.0013717
        k(  646) = (   0.0000000  -0.3142697  -0.1571348), wk =   0.0013717
        k(  647) = (  -0.0785674  -0.2357023  -0.0785674), wk =   0.0013717
        k(  648) = (  -0.1571348  -0.1571348  -0.0000000), wk =   0.0013717
        k(  649) = (  -0.0785674  -0.0785674   0.0785674), wk =   0.0013717
        k(  650) = (  -0.1571348  -0.0000000   0.1571348), wk =   0.0013717
        k(  651) = (  -0.2357023   0.0785674   0.2357023), wk =   0.0013717
        k(  652) = (  -0.3142697   0.1571348   0.3142697), wk =   0.0013717
        k(  653) = (  -0.3928371   0.2357023   0.3928371), wk =   0.0013717
        k(  654) = (   0.2357023  -0.3928371  -0.2357023), wk =   0.0013717
        k(  655) = (   0.1571348  -0.3142697  -0.1571348), wk =   0.0013717
        k(  656) = (   0.0785674  -0.2357023  -0.0785674), wk =   0.0013717
        k(  657) = (   0.0000000  -0.1571348   0.0000000), wk =   0.0013717
        k(  658) = (  -0.0000000  -0.1571348   0.1571348), wk =   0.0013717
        k(  659) = (  -0.0785674  -0.0785674   0.2357023), wk =   0.0013717
        k(  660) = (  -0.1571348  -0.0000000   0.3142697), wk =   0.0013717
        k(  661) = (  -0.2357023   0.0785674   0.3928371), wk =   0.0013717
        k(  662) = (  -0.3142697   0.1571348   0.4714045), wk =   0.0013717
        k(  663) = (   0.3142697  -0.4714045  -0.1571348), wk =   0.0013717
        k(  664) = (   0.2357023  -0.3928371  -0.0785674), wk =   0.0013717
        k(  665) = (   0.1571348  -0.3142697   0.0000000), wk =   0.0013717
        k(  666) = (   0.0785674  -0.2357023   0.0785674), wk =   0.0013717
        k(  667) = (   0.0785674  -0.2357023   0.2357023), wk =   0.0013717
        k(  668) = (  -0.0000000  -0.1571348   0.3142697), wk =   0.0013717
        k(  669) = (  -0.0785674  -0.0785674   0.3928371), wk =   0.0013717
        k(  670) = (  -0.1571348  -0.0000000   0.4714045), wk =   0.0013717
        k(  671) = (  -0.2357023   0.0785674   0.5499719), wk =   0.0013717
        k(  672) = (   0.3928371  -0.5499719  -0.0785674), wk =   0.0013717
        k(  673) = (   0.3142697  -0.4714045  -0.0000000), wk =   0.0013717
        k(  674) = (   0.2357023  -0.3928371   0.0785674), wk =   0.0013717
        k(  675) = (   0.1571348  -0.3142697   0.1571348), wk =   0.0013717
        k(  676) = (   0.1571348  -0.3142697   0.3142697), wk =   0.0013717
        k(  677) = (   0.0785674  -0.2357023   0.3928371), wk =   0.0013717
        k(  678) = (  -0.0000000  -0.1571348   0.4714045), wk =   0.0013717
        k(  679) = (  -0.0785674  -0.0785674   0.5499719), wk =   0.0013717
        k(  680) = (  -0.1571348  -0.0000000   0.6285394), wk =   0.0013717
        k(  681) = (   0.4714045  -0.6285394   0.0000000), wk =   0.0013717
        k(  682) = (   0.3928371  -0.5499719   0.0785674), wk =   0.0013717
        k(  683) = (   0.3142697  -0.4714045   0.1571348), wk =   0.0013717
        k(  684) = (   0.2357023  -0.3928371   0.2357023), wk =   0.0013717
        k(  685) = (   0.2357023  -0.3928371   0.3928371), wk =   0.0013717
        k(  686) = (   0.1571348  -0.3142697   0.4714045), wk =   0.0013717
        k(  687) = (   0.0785674  -0.2357023   0.5499719), wk =   0.0013717
        k(  688) = (  -0.0000000  -0.1571348   0.6285394), wk =   0.0013717
        k(  689) = (  -0.0785674  -0.0785674   0.7071068), wk =   0.0013717
        k(  690) = (   0.5499719  -0.7071068   0.0785674), wk =   0.0013717
        k(  691) = (   0.4714045  -0.6285394   0.1571348), wk =   0.0013717
        k(  692) = (   0.3928371  -0.5499719   0.2357023), wk =   0.0013717
        k(  693) = (   0.3142697  -0.4714045   0.3142697), wk =   0.0013717
        k(  694) = (  -0.3928371   0.2357023  -0.2357023), wk =   0.0013717
        k(  695) = (  -0.4714045   0.3142697  -0.1571348), wk =   0.0013717
        k(  696) = (  -0.5499719   0.3928371  -0.0785674), wk =   0.0013717
        k(  697) = (  -0.6285394   0.4714045   0.0000000), wk =   0.0013717
        k(  698) = (  -0.7071068   0.5499719   0.0785674), wk =   0.0013717
        k(  699) = (  -0.0785674  -0.0785674  -0.5499719), wk =   0.0013717
        k(  700) = (  -0.1571348  -0.0000000  -0.4714045), wk =   0.0013717
        k(  701) = (  -0.2357023   0.0785674  -0.3928371), wk =   0.0013717
        k(  702) = (  -0.3142697   0.1571348  -0.3142697), wk =   0.0013717
        k(  703) = (  -0.3142697   0.1571348  -0.1571348), wk =   0.0013717
        k(  704) = (  -0.3928371   0.2357023  -0.0785674), wk =   0.0013717
        k(  705) = (  -0.4714045   0.3142697  -0.0000000), wk =   0.0013717
        k(  706) = (  -0.5499719   0.3928371   0.0785674), wk =   0.0013717
        k(  707) = (  -0.6285394   0.4714045   0.1571348), wk =   0.0013717
        k(  708) = (  -0.0000000  -0.1571348  -0.4714045), wk =   0.0013717
        k(  709) = (  -0.0785674  -0.0785674  -0.3928371), wk =   0.0013717
        k(  710) = (  -0.1571348   0.0000000  -0.3142697), wk =   0.0013717
        k(  711) = (  -0.2357023   0.0785674  -0.2357023), wk =   0.0013717
        k(  712) = (  -0.2357023   0.0785674  -0.0785674), wk =   0.0013717
        k(  713) = (  -0.3142697   0.1571348   0.0000000), wk =   0.0013717
        k(  714) = (  -0.3928371   0.2357023   0.0785674), wk =   0.0013717
        k(  715) = (  -0.4714045   0.3142697   0.1571348), wk =   0.0013717
        k(  716) = (  -0.5499719   0.3928371   0.2357023), wk =   0.0013717
        k(  717) = (   0.0785674  -0.2357023  -0.3928371), wk =   0.0013717
        k(  718) = (   0.0000000  -0.1571348  -0.3142697), wk =   0.0013717
        k(  719) = (  -0.0785674  -0.0785674  -0.2357023), wk =   0.0013717
        k(  720) = (  -0.1571348  -0.0000000  -0.1571348), wk =   0.0013717
        k(  721) = (  -0.1571348   0.0000000   0.0000000), wk =   0.0013717
        k(  722) = (  -0.2357023   0.0785674   0.0785674), wk =   0.0013717
        k(  723) = (  -0.3142697   0.1571348   0.1571348), wk =   0.0013717
        k(  724) = (  -0.3928371   0.2357023   0.2357023), wk =   0.0013717
        k(  725) = (  -0.4714045   0.3142697   0.3142697), wk =   0.0013717
        k(  726) = (   0.1571348  -0.3142697  -0.3142697), wk =   0.0013717
        k(  727) = (   0.0785674  -0.2357023  -0.2357023), wk =   0.0013717
        k(  728) = (  -0.0000000  -0.1571348  -0.1571348), wk =   0.0013717
        k(  729) = (  -0.0785674  -0.0785674  -0.0785674), wk =   0.0013717

                       cryst. coord.
        k(    1) = (   0.0000000   0.0000000   0.0000000), wk =   0.0013717
        k(    2) = (   0.0000000   0.0000000   0.1111111), wk =   0.0013717
        k(    3) = (   0.0000000   0.0000000   0.2222222), wk =   0.0013717
        k(    4) = (   0.0000000   0.0000000   0.3333333), wk =   0.0013717
        k(    5) = (   0.0000000   0.0000000   0.4444444), wk =   0.0013717
        k(    6) = (   0.0000000   0.0000000  -0.4444444), wk =   0.0013717
        k(    7) = (   0.0000000   0.0000000  -0.3333333), wk =   0.0013717
        k(    8) = (   0.0000000   0.0000000  -0.2222222), wk =   0.0013717
        k(    9) = (   0.0000000   0.0000000  -0.1111111), wk =   0.0013717
        k(   10) = (   0.0000000   0.1111111   0.0000000), wk =   0.0013717
        k(   11) = (   0.0000000   0.1111111   0.1111111), wk =   0.0013717
        k(   12) = (   0.0000000   0.1111111   0.2222222), wk =   0.0013717
        k(   13) = (   0.0000000   0.1111111   0.3333333), wk =   0.0013717
        k(   14) = (   0.0000000   0.1111111   0.4444444), wk =   0.0013717
        k(   15) = (   0.0000000   0.1111111  -0.4444444), wk =   0.0013717
        k(   16) = (   0.0000000   0.1111111  -0.3333333), wk =   0.0013717
        k(   17) = (   0.0000000   0.1111111  -0.2222222), wk =   0.0013717
        k(   18) = (   0.0000000   0.1111111  -0.1111111), wk =   0.0013717
        k(   19) = (   0.0000000   0.2222222   0.0000000), wk =   0.0013717
        k(   20) = (   0.0000000   0.2222222   0.1111111), wk =   0.0013717
        k(   21) = (   0.0000000   0.2222222   0.2222222), wk =   0.0013717
        k(   22) = (   0.0000000   0.2222222   0.3333333), wk =   0.0013717
        k(   23) = (   0.0000000   0.2222222   0.4444444), wk =   0.0013717
        k(   24) = (   0.0000000   0.2222222  -0.4444444), wk =   0.0013717
        k(   25) = (   0.0000000   0.2222222  -0.3333333), wk =   0.0013717
        k(   26) = (   0.0000000   0.2222222  -0.2222222), wk =   0.0013717
        k(   27) = (   0.0000000   0.2222222  -0.1111111), wk =   0.0013717
        k(   28) = (   0.0000000   0.3333333   0.0000000), wk =   0.0013717
        k(   29) = (   0.0000000   0.3333333   0.1111111), wk =   0.0013717
        k(   30) = (   0.0000000   0.3333333   0.2222222), wk =   0.0013717
        k(   31) = (   0.0000000   0.3333333   0.3333333), wk =   0.0013717
        k(   32) = (   0.0000000   0.3333333   0.4444444), wk =   0.0013717
        k(   33) = (   0.0000000   0.3333333  -0.4444444), wk =   0.0013717
        k(   34) = (   0.0000000   0.3333333  -0.3333333), wk =   0.0013717
        k(   35) = (   0.0000000   0.3333333  -0.2222222), wk =   0.0013717
        k(   36) = (   0.0000000   0.3333333  -0.1111111), wk =   0.0013717
        k(   37) = (   0.0000000   0.4444444   0.0000000), wk =   0.0013717
        k(   38) = (   0.0000000   0.4444444   0.1111111), wk =   0.0013717
        k(   39) = (   0.0000000   0.4444444   0.2222222), wk =   0.0013717
        k(   40) = (   0.0000000   0.4444444   0.3333333), wk =   0.0013717
        k(   41) = (   0.0000000   0.4444444   0.4444444), wk =   0.0013717
        k(   42) = (   0.0000000   0.4444444  -0.4444444), wk =   0.0013717
        k(   43) = (   0.0000000   0.4444444  -0.3333333), wk =   0.0013717
        k(   44) = (   0.0000000   0.4444444  -0.2222222), wk =   0.0013717
        k(   45) = (   0.0000000   0.4444444  -0.1111111), wk =   0.0013717
        k(   46) = (   0.0000000  -0.4444444   0.0000000), wk =   0.0013717
        k(   47) = (   0.0000000  -0.4444444   0.1111111), wk =   0.0013717
        k(   48) = (   0.0000000  -0.4444444   0.2222222), wk =   0.0013717
        k(   49) = (   0.0000000  -0.4444444   0.3333333), wk =   0.0013717
        k(   50) = (   0.0000000  -0.4444444   0.4444444), wk =   0.0013717
        k(   51) = (   0.0000000  -0.4444444  -0.4444444), wk =   0.0013717
        k(   52) = (   0.0000000  -0.4444444  -0.3333333), wk =   0.0013717
        k(   53) = (   0.0000000  -0.4444444  -0.2222222), wk =   0.0013717
        k(   54) = (   0.0000000  -0.4444444  -0.1111111), wk =   0.0013717
        k(   55) = (   0.0000000  -0.3333333   0.0000000), wk =   0.0013717
        k(   56) = (   0.0000000  -0.3333333   0.1111111), wk =   0.0013717
        k(   57) = (   0.0000000  -0.3333333   0.2222222), wk =   0.0013717
        k(   58) = (   0.0000000  -0.3333333   0.3333333), wk =   0.0013717
        k(   59) = (   0.0000000  -0.3333333   0.4444444), wk =   0.0013717
        k(   60) = (   0.0000000  -0.3333333  -0.4444444), wk =   0.0013717
        k(   61) = (   0.0000000  -0.3333333  -0.3333333), wk =   0.0013717
        k(   62) = (   0.0000000  -0.3333333  -0.2222222), wk =   0.0013717
        k(   63) = (   0.0000000  -0.3333333  -0.1111111), wk =   0.0013717
        k(   64) = (   0.0000000  -0.2222222   0.0000000), wk =   0.0013717
        k(   65) = (   0.0000000  -0.2222222   0.1111111), wk =   0.0013717
        k(   66) = (   0.0000000  -0.2222222   0.2222222), wk =   0.0013717
        k(   67) = (   0.0000000  -0.2222222   0.3333333), wk =   0.0013717
        k(   68) = (   0.0000000  -0.2222222   0.4444444), wk =   0.0013717
        k(   69) = (   0.0000000  -0.2222222  -0.4444444), wk =   0.0013717
        k(   70) = (   0.0000000  -0.2222222  -0.3333333), wk =   0.0013717
        k(   71) = (   0.0000000  -0.2222222  -0.2222222), wk =   0.0013717
        k(   72) = (   0.0000000  -0.2222222  -0.1111111), wk =   0.0013717
        k(   73) = (   0.0000000  -0.1111111   0.0000000), wk =   0.0013717
        k(   74) = (   0.0000000  -0.1111111   0.1111111), wk =   0.0013717
        k(   75) = (   0.0000000  -0.1111111   0.2222222), wk =   0.0013717
        k(   76) = (   0.0000000  -0.1111111   0.3333333), wk =   0.0013717
        k(   77) = (   0.0000000  -0.1111111   0.4444444), wk =   0.0013717
        k(   78) = (   0.0000000  -0.1111111  -0.4444444), wk =   0.0013717
        k(   79) = (   0.0000000  -0.1111111  -0.3333333), wk =   0.0013717
        k(   80) = (   0.0000000  -0.1111111  -0.2222222), wk =   0.0013717
        k(   81) = (   0.0000000  -0.1111111  -0.1111111), wk =   0.0013717
        k(   82) = (   0.1111111   0.0000000   0.0000000), wk =   0.0013717
        k(   83) = (   0.1111111   0.0000000   0.1111111), wk =   0.0013717
        k(   84) = (   0.1111111   0.0000000   0.2222222), wk =   0.0013717
        k(   85) = (   0.1111111   0.0000000   0.3333333), wk =   0.0013717
        k(   86) = (   0.1111111   0.0000000   0.4444444), wk =   0.0013717
        k(   87) = (   0.1111111   0.0000000  -0.4444444), wk =   0.0013717
        k(   88) = (   0.1111111   0.0000000  -0.3333333), wk =   0.0013717
        k(   89) = (   0.1111111   0.0000000  -0.2222222), wk =   0.0013717
        k(   90) = (   0.1111111   0.0000000  -0.1111111), wk =   0.0013717
        k(   91) = (   0.1111111   0.1111111   0.0000000), wk =   0.0013717
        k(   92) = (   0.1111111   0.1111111   0.1111111), wk =   0.0013717
        k(   93) = (   0.1111111   0.1111111   0.2222222), wk =   0.0013717
        k(   94) = (   0.1111111   0.1111111   0.3333333), wk =   0.0013717
        k(   95) = (   0.1111111   0.1111111   0.4444444), wk =   0.0013717
        k(   96) = (   0.1111111   0.1111111  -0.4444444), wk =   0.0013717
        k(   97) = (   0.1111111   0.1111111  -0.3333333), wk =   0.0013717
        k(   98) = (   0.1111111   0.1111111  -0.2222222), wk =   0.0013717
        k(   99) = (   0.1111111   0.1111111  -0.1111111), wk =   0.0013717
        k(  100) = (   0.1111111   0.2222222   0.0000000), wk =   0.0013717
        k(  101) = (   0.1111111   0.2222222   0.1111111), wk =   0.0013717
        k(  102) = (   0.1111111   0.2222222   0.2222222), wk =   0.0013717
        k(  103) = (   0.1111111   0.2222222   0.3333333), wk =   0.0013717
        k(  104) = (   0.1111111   0.2222222   0.4444444), wk =   0.0013717
        k(  105) = (   0.1111111   0.2222222  -0.4444444), wk =   0.0013717
        k(  106) = (   0.1111111   0.2222222  -0.3333333), wk =   0.0013717
        k(  107) = (   0.1111111   0.2222222  -0.2222222), wk =   0.0013717
        k(  108) = (   0.1111111   0.2222222  -0.1111111), wk =   0.0013717
        k(  109) = (   0.1111111   0.3333333   0.0000000), wk =   0.0013717
        k(  110) = (   0.1111111   0.3333333   0.1111111), wk =   0.0013717
        k(  111) = (   0.1111111   0.3333333   0.2222222), wk =   0.0013717
        k(  112) = (   0.1111111   0.3333333   0.3333333), wk =   0.0013717
        k(  113) = (   0.1111111   0.3333333   0.4444444), wk =   0.0013717
        k(  114) = (   0.1111111   0.3333333  -0.4444444), wk =   0.0013717
        k(  115) = (   0.1111111   0.3333333  -0.3333333), wk =   0.0013717
        k(  116) = (   0.1111111   0.3333333  -0.2222222), wk =   0.0013717
        k(  117) = (   0.1111111   0.3333333  -0.1111111), wk =   0.0013717
        k(  118) = (   0.1111111   0.4444444   0.0000000), wk =   0.0013717
        k(  119) = (   0.1111111   0.4444444   0.1111111), wk =   0.0013717
        k(  120) = (   0.1111111   0.4444444   0.2222222), wk =   0.0013717
        k(  121) = (   0.1111111   0.4444444   0.3333333), wk =   0.0013717
        k(  122) = (   0.1111111   0.4444444   0.4444444), wk =   0.0013717
        k(  123) = (   0.1111111   0.4444444  -0.4444444), wk =   0.0013717
        k(  124) = (   0.1111111   0.4444444  -0.3333333), wk =   0.0013717
        k(  125) = (   0.1111111   0.4444444  -0.2222222), wk =   0.0013717
        k(  126) = (   0.1111111   0.4444444  -0.1111111), wk =   0.0013717
        k(  127) = (   0.1111111  -0.4444444   0.0000000), wk =   0.0013717
        k(  128) = (   0.1111111  -0.4444444   0.1111111), wk =   0.0013717
        k(  129) = (   0.1111111  -0.4444444   0.2222222), wk =   0.0013717
        k(  130) = (   0.1111111  -0.4444444   0.3333333), wk =   0.0013717
        k(  131) = (   0.1111111  -0.4444444   0.4444444), wk =   0.0013717
        k(  132) = (   0.1111111  -0.4444444  -0.4444444), wk =   0.0013717
        k(  133) = (   0.1111111  -0.4444444  -0.3333333), wk =   0.0013717
        k(  134) = (   0.1111111  -0.4444444  -0.2222222), wk =   0.0013717
        k(  135) = (   0.1111111  -0.4444444  -0.1111111), wk =   0.0013717
        k(  136) = (   0.1111111  -0.3333333   0.0000000), wk =   0.0013717
        k(  137) = (   0.1111111  -0.3333333   0.1111111), wk =   0.0013717
        k(  138) = (   0.1111111  -0.3333333   0.2222222), wk =   0.0013717
        k(  139) = (   0.1111111  -0.3333333   0.3333333), wk =   0.0013717
        k(  140) = (   0.1111111  -0.3333333   0.4444444), wk =   0.0013717
        k(  141) = (   0.1111111  -0.3333333  -0.4444444), wk =   0.0013717
        k(  142) = (   0.1111111  -0.3333333  -0.3333333), wk =   0.0013717
        k(  143) = (   0.1111111  -0.3333333  -0.2222222), wk =   0.0013717
        k(  144) = (   0.1111111  -0.3333333  -0.1111111), wk =   0.0013717
        k(  145) = (   0.1111111  -0.2222222   0.0000000), wk =   0.0013717
        k(  146) = (   0.1111111  -0.2222222   0.1111111), wk =   0.0013717
        k(  147) = (   0.1111111  -0.2222222   0.2222222), wk =   0.0013717
        k(  148) = (   0.1111111  -0.2222222   0.3333333), wk =   0.0013717
        k(  149) = (   0.1111111  -0.2222222   0.4444444), wk =   0.0013717
        k(  150) = (   0.1111111  -0.2222222  -0.4444444), wk =   0.0013717
        k(  151) = (   0.1111111  -0.2222222  -0.3333333), wk =   0.0013717
        k(  152) = (   0.1111111  -0.2222222  -0.2222222), wk =   0.0013717
        k(  153) = (   0.1111111  -0.2222222  -0.1111111), wk =   0.0013717
        k(  154) = (   0.1111111  -0.1111111   0.0000000), wk =   0.0013717
        k(  155) = (   0.1111111  -0.1111111   0.1111111), wk =   0.0013717
        k(  156) = (   0.1111111  -0.1111111   0.2222222), wk =   0.0013717
        k(  157) = (   0.1111111  -0.1111111   0.3333333), wk =   0.0013717
        k(  158) = (   0.1111111  -0.1111111   0.4444444), wk =   0.0013717
        k(  159) = (   0.1111111  -0.1111111  -0.4444444), wk =   0.0013717
        k(  160) = (   0.1111111  -0.1111111  -0.3333333), wk =   0.0013717
        k(  161) = (   0.1111111  -0.1111111  -0.2222222), wk =   0.0013717
        k(  162) = (   0.1111111  -0.1111111  -0.1111111), wk =   0.0013717
        k(  163) = (   0.2222222   0.0000000   0.0000000), wk =   0.0013717
        k(  164) = (   0.2222222   0.0000000   0.1111111), wk =   0.0013717
        k(  165) = (   0.2222222   0.0000000   0.2222222), wk =   0.0013717
        k(  166) = (   0.2222222   0.0000000   0.3333333), wk =   0.0013717
        k(  167) = (   0.2222222   0.0000000   0.4444444), wk =   0.0013717
        k(  168) = (   0.2222222   0.0000000  -0.4444444), wk =   0.0013717
        k(  169) = (   0.2222222   0.0000000  -0.3333333), wk =   0.0013717
        k(  170) = (   0.2222222   0.0000000  -0.2222222), wk =   0.0013717
        k(  171) = (   0.2222222   0.0000000  -0.1111111), wk =   0.0013717
        k(  172) = (   0.2222222   0.1111111   0.0000000), wk =   0.0013717
        k(  173) = (   0.2222222   0.1111111   0.1111111), wk =   0.0013717
        k(  174) = (   0.2222222   0.1111111   0.2222222), wk =   0.0013717
        k(  175) = (   0.2222222   0.1111111   0.3333333), wk =   0.0013717
        k(  176) = (   0.2222222   0.1111111   0.4444444), wk =   0.0013717
        k(  177) = (   0.2222222   0.1111111  -0.4444444), wk =   0.0013717
        k(  178) = (   0.2222222   0.1111111  -0.3333333), wk =   0.0013717
        k(  179) = (   0.2222222   0.1111111  -0.2222222), wk =   0.0013717
        k(  180) = (   0.2222222   0.1111111  -0.1111111), wk =   0.0013717
        k(  181) = (   0.2222222   0.2222222   0.0000000), wk =   0.0013717
        k(  182) = (   0.2222222   0.2222222   0.1111111), wk =   0.0013717
        k(  183) = (   0.2222222   0.2222222   0.2222222), wk =   0.0013717
        k(  184) = (   0.2222222   0.2222222   0.3333333), wk =   0.0013717
        k(  185) = (   0.2222222   0.2222222   0.4444444), wk =   0.0013717
        k(  186) = (   0.2222222   0.2222222  -0.4444444), wk =   0.0013717
        k(  187) = (   0.2222222   0.2222222  -0.3333333), wk =   0.0013717
        k(  188) = (   0.2222222   0.2222222  -0.2222222), wk =   0.0013717
        k(  189) = (   0.2222222   0.2222222  -0.1111111), wk =   0.0013717
        k(  190) = (   0.2222222   0.3333333   0.0000000), wk =   0.0013717
        k(  191) = (   0.2222222   0.3333333   0.1111111), wk =   0.0013717
        k(  192) = (   0.2222222   0.3333333   0.2222222), wk =   0.0013717
        k(  193) = (   0.2222222   0.3333333   0.3333333), wk =   0.0013717
        k(  194) = (   0.2222222   0.3333333   0.4444444), wk =   0.0013717
        k(  195) = (   0.2222222   0.3333333  -0.4444444), wk =   0.0013717
        k(  196) = (   0.2222222   0.3333333  -0.3333333), wk =   0.0013717
        k(  197) = (   0.2222222   0.3333333  -0.2222222), wk =   0.0013717
        k(  198) = (   0.2222222   0.3333333  -0.1111111), wk =   0.0013717
        k(  199) = (   0.2222222   0.4444444   0.0000000), wk =   0.0013717
        k(  200) = (   0.2222222   0.4444444   0.1111111), wk =   0.0013717
        k(  201) = (   0.2222222   0.4444444   0.2222222), wk =   0.0013717
        k(  202) = (   0.2222222   0.4444444   0.3333333), wk =   0.0013717
        k(  203) = (   0.2222222   0.4444444   0.4444444), wk =   0.0013717
        k(  204) = (   0.2222222   0.4444444  -0.4444444), wk =   0.0013717
        k(  205) = (   0.2222222   0.4444444  -0.3333333), wk =   0.0013717
        k(  206) = (   0.2222222   0.4444444  -0.2222222), wk =   0.0013717
        k(  207) = (   0.2222222   0.4444444  -0.1111111), wk =   0.0013717
        k(  208) = (   0.2222222  -0.4444444   0.0000000), wk =   0.0013717
        k(  209) = (   0.2222222  -0.4444444   0.1111111), wk =   0.0013717
        k(  210) = (   0.2222222  -0.4444444   0.2222222), wk =   0.0013717
        k(  211) = (   0.2222222  -0.4444444   0.3333333), wk =   0.0013717
        k(  212) = (   0.2222222  -0.4444444   0.4444444), wk =   0.0013717
        k(  213) = (   0.2222222  -0.4444444  -0.4444444), wk =   0.0013717
        k(  214) = (   0.2222222  -0.4444444  -0.3333333), wk =   0.0013717
        k(  215) = (   0.2222222  -0.4444444  -0.2222222), wk =   0.0013717
        k(  216) = (   0.2222222  -0.4444444  -0.1111111), wk =   0.0013717
        k(  217) = (   0.2222222  -0.3333333   0.0000000), wk =   0.0013717
        k(  218) = (   0.2222222  -0.3333333   0.1111111), wk =   0.0013717
        k(  219) = (   0.2222222  -0.3333333   0.2222222), wk =   0.0013717
        k(  220) = (   0.2222222  -0.3333333   0.3333333), wk =   0.0013717
        k(  221) = (   0.2222222  -0.3333333   0.4444444), wk =   0.0013717
        k(  222) = (   0.2222222  -0.3333333  -0.4444444), wk =   0.0013717
        k(  223) = (   0.2222222  -0.3333333  -0.3333333), wk =   0.0013717
        k(  224) = (   0.2222222  -0.3333333  -0.2222222), wk =   0.0013717
        k(  225) = (   0.2222222  -0.3333333  -0.1111111), wk =   0.0013717
        k(  226) = (   0.2222222  -0.2222222   0.0000000), wk =   0.0013717
        k(  227) = (   0.2222222  -0.2222222   0.1111111), wk =   0.0013717
        k(  228) = (   0.2222222  -0.2222222   0.2222222), wk =   0.0013717
        k(  229) = (   0.2222222  -0.2222222   0.3333333), wk =   0.0013717
        k(  230) = (   0.2222222  -0.2222222   0.4444444), wk =   0.0013717
        k(  231) = (   0.2222222  -0.2222222  -0.4444444), wk =   0.0013717
        k(  232) = (   0.2222222  -0.2222222  -0.3333333), wk =   0.0013717
        k(  233) = (   0.2222222  -0.2222222  -0.2222222), wk =   0.0013717
        k(  234) = (   0.2222222  -0.2222222  -0.1111111), wk =   0.0013717
        k(  235) = (   0.2222222  -0.1111111   0.0000000), wk =   0.0013717
        k(  236) = (   0.2222222  -0.1111111   0.1111111), wk =   0.0013717
        k(  237) = (   0.2222222  -0.1111111   0.2222222), wk =   0.0013717
        k(  238) = (   0.2222222  -0.1111111   0.3333333), wk =   0.0013717
        k(  239) = (   0.2222222  -0.1111111   0.4444444), wk =   0.0013717
        k(  240) = (   0.2222222  -0.1111111  -0.4444444), wk =   0.0013717
        k(  241) = (   0.2222222  -0.1111111  -0.3333333), wk =   0.0013717
        k(  242) = (   0.2222222  -0.1111111  -0.2222222), wk =   0.0013717
        k(  243) = (   0.2222222  -0.1111111  -0.1111111), wk =   0.0013717
        k(  244) = (   0.3333333   0.0000000   0.0000000), wk =   0.0013717
        k(  245) = (   0.3333333   0.0000000   0.1111111), wk =   0.0013717
        k(  246) = (   0.3333333   0.0000000   0.2222222), wk =   0.0013717
        k(  247) = (   0.3333333   0.0000000   0.3333333), wk =   0.0013717
        k(  248) = (   0.3333333   0.0000000   0.4444444), wk =   0.0013717
        k(  249) = (   0.3333333   0.0000000  -0.4444444), wk =   0.0013717
        k(  250) = (   0.3333333   0.0000000  -0.3333333), wk =   0.0013717
        k(  251) = (   0.3333333   0.0000000  -0.2222222), wk =   0.0013717
        k(  252) = (   0.3333333   0.0000000  -0.1111111), wk =   0.0013717
        k(  253) = (   0.3333333   0.1111111   0.0000000), wk =   0.0013717
        k(  254) = (   0.3333333   0.1111111   0.1111111), wk =   0.0013717
        k(  255) = (   0.3333333   0.1111111   0.2222222), wk =   0.0013717
        k(  256) = (   0.3333333   0.1111111   0.3333333), wk =   0.0013717
        k(  257) = (   0.3333333   0.1111111   0.4444444), wk =   0.0013717
        k(  258) = (   0.3333333   0.1111111  -0.4444444), wk =   0.0013717
        k(  259) = (   0.3333333   0.1111111  -0.3333333), wk =   0.0013717
        k(  260) = (   0.3333333   0.1111111  -0.2222222), wk =   0.0013717
        k(  261) = (   0.3333333   0.1111111  -0.1111111), wk =   0.0013717
        k(  262) = (   0.3333333   0.2222222   0.0000000), wk =   0.0013717
        k(  263) = (   0.3333333   0.2222222   0.1111111), wk =   0.0013717
[...]

          k =-0.1571-0.0000 0.6285 (   749 PWs)   bands (ev):

    -2.4939  -0.9141   2.6532   2.8656   7.6058   7.9128  13.1850  15.0409

     occupation numbers 
     1.0000   1.0000   1.0000   1.0000   0.0000   0.0000   0.0000   0.0000

          k = 0.4714-0.6285 0.0000 (   743 PWs)   bands (ev):

    -1.9693  -1.3748   1.9193   2.9534   7.9763   9.6234  12.6381  12.8891

     occupation numbers 
     1.0000   1.0000   1.0000   1.0000   0.0000   0.0000   0.0000   0.0000

          k = 0.3928-0.5500 0.0786 (   745 PWs)   bands (ev):

    -2.6542  -0.8008   1.8787   3.4426   8.4797  10.4869  12.0243  12.5796

     occupation numbers 
     1.0000   1.0000   1.0000   1.0000   0.0000   0.0000   0.0000   0.0000

          k = 0.3143-0.4714 0.1571 (   742 PWs)   bands (ev):

    -3.3347  -0.5517   2.8480   4.1040   8.8274   9.1681  11.3944  12.4917

     occupation numbers 
     1.0000   1.0000   1.0000   1.0000   0.0000   0.0000   0.0000   0.0000

          k = 0.2357-0.3928 0.2357 (   754 PWs)   bands (ev):

    -3.8497  -0.2809   4.0663   4.4974   8.1526   9.3771  10.1056  12.7384

     occupation numbers 
     1.0000   1.0000   1.0000   1.0000   0.0000   0.0000   0.0000   0.0000

          k = 0.2357-0.3928 0.3928 (   754 PWs)   bands (ev):

    -3.4689  -0.8551   3.8072   4.6383   8.1562   9.3962   9.8409  14.0511

     occupation numbers 
     1.0000   1.0000   1.0000   1.0000   0.0000   0.0000   0.0000   0.0000

          k = 0.1571-0.3143 0.4714 (   742 PWs)   bands (ev):

    -3.3347  -0.5517   2.8480   4.1040   8.8274   9.1681  11.3944  12.4917

     occupation numbers 
     1.0000   1.0000   1.0000   1.0000   0.0000   0.0000   0.0000   0.0000

          k = 0.0786-0.2357 0.5500 (   751 PWs)   bands (ev):

    -3.0212  -0.3739   2.2686   3.3298   8.1874   9.8879  10.9763  13.5385

     occupation numbers 
     1.0000   1.0000   1.0000   1.0000   0.0000   0.0000   0.0000   0.0000

          k =-0.0000-0.1571 0.6285 (   749 PWs)   bands (ev):

    -2.4939  -0.9141   2.6532   2.8656   7.6058   7.9128  13.1850  15.0408

     occupation numbers 
     1.0000   1.0000   1.0000   1.0000   0.0000   0.0000   0.0000   0.0000

          k =-0.0786-0.0786 0.7071 (   746 PWs)   bands (ev):

    -1.8383  -1.6706   2.6035   3.2704   6.7540   7.5967  15.1642  15.4570

     occupation numbers 
     1.0000   1.0000   1.0000   1.0000   0.0000   0.0000   0.0000   0.0000

          k = 0.5500-0.7071 0.0786 (   749 PWs)   bands (ev):

    -2.4939  -0.9141   2.6532   2.8656   7.6058   7.9128  13.1850  15.0409

     occupation numbers 
     1.0000   1.0000   1.0000   1.0000   0.0000   0.0000   0.0000   0.0000

          k = 0.4714-0.6285 0.1571 (   751 PWs)   bands (ev):

    -3.0212  -0.3739   2.2686   3.3298   8.1874   9.8879  10.9763  13.5385

     occupation numbers 
     1.0000   1.0000   1.0000   1.0000   0.0000   0.0000   0.0000   0.0000

          k = 0.3928-0.5500 0.2357 (   742 PWs)   bands (ev):

    -3.3347  -0.5517   2.8480   4.1040   8.8274   9.1681  11.3944  12.4917

     occupation numbers 
     1.0000   1.0000   1.0000   1.0000   0.0000   0.0000   0.0000   0.0000

          k = 0.3143-0.4714 0.3143 (   754 PWs)   bands (ev):

    -3.4689  -0.8551   3.8072   4.6383   8.1562   9.3962   9.8409  14.0510

     occupation numbers 
     1.0000   1.0000   1.0000   1.0000   0.0000   0.0000   0.0000   0.0000

          k =-0.3928 0.2357-0.2357 (   754 PWs)   bands (ev):

    -3.8497  -0.2809   4.0663   4.4974   8.1526   9.3771  10.1056  12.7384

     occupation numbers 
     1.0000   1.0000   1.0000   1.0000   0.0000   0.0000   0.0000   0.0000

          k =-0.4714 0.3143-0.1571 (   742 PWs)   bands (ev):

    -3.3347  -0.5517   2.8480   4.1040   8.8274   9.1681  11.3944  12.4917

     occupation numbers 
     1.0000   1.0000   1.0000   1.0000   0.0000   0.0000   0.0000   0.0000

          k =-0.5500 0.3928-0.0786 (   745 PWs)   bands (ev):

    -2.6542  -0.8008   1.8787   3.4426   8.4797  10.4869  12.0243  12.5798

     occupation numbers 
     1.0000   1.0000   1.0000   1.0000   0.0000   0.0000   0.0000   0.0000

          k =-0.6285 0.4714 0.0000 (   743 PWs)   bands (ev):

    -1.9693  -1.3748   1.9193   2.9534   7.9763   9.6234  12.6381  12.8891

     occupation numbers 
     1.0000   1.0000   1.0000   1.0000   0.0000   0.0000   0.0000   0.0000

          k =-0.7071 0.5500 0.0786 (   749 PWs)   bands (ev):

    -2.4939  -0.9141   2.6532   2.8656   7.6058   7.9128  13.1850  15.0408

     occupation numbers 
     1.0000   1.0000   1.0000   1.0000   0.0000   0.0000   0.0000   0.0000

          k =-0.0786-0.0786-0.5500 (   755 PWs)   bands (ev):

    -3.2849  -0.0368   2.8798   3.4611   6.9191   7.9936  13.5177  13.5862

     occupation numbers 
     1.0000   1.0000   1.0000   1.0000   0.0000   0.0000   0.0000   0.0000

          k =-0.1571-0.0000-0.4714 (   753 PWs)   bands (ev):

    -3.8488   0.7081   2.9400   3.6388   7.7878   8.7834  11.4194  13.1426

     occupation numbers 
     1.0000   1.0000   1.0000   1.0000   0.0000   0.0000   0.0000   0.0000

          k =-0.2357 0.0786-0.3928 (   752 PWs)   bands (ev):

    -4.1332   0.7391   3.0416   4.4279   8.7347   9.5787  10.7493  11.4501

     occupation numbers 
     1.0000   1.0000   1.0000   1.0000   0.0000   0.0000   0.0000   0.0000

          k =-0.3143 0.1571-0.3143 (   751 PWs)   bands (ev):

    -4.1288   0.1961   3.7728   4.9692   8.3452   9.6233   9.7195  13.3150

     occupation numbers 
     1.0000   1.0000   1.0000   1.0000   0.0000   0.0000   0.0000   0.0000

          k =-0.3143 0.1571-0.1571 (   757 PWs)   bands (ev):

    -4.6774   1.3105   4.5029   4.5785   8.2819   9.4766  10.3866  11.3055

     occupation numbers 
     1.0000   1.0000   1.0000   1.0000   0.0000   0.0000   0.0000   0.0000

          k =-0.3928 0.2357-0.0786 (   752 PWs)   bands (ev):

    -4.1332   0.7391   3.0416   4.4279   8.7347   9.5787  10.7493  11.4501

     occupation numbers 
     1.0000   1.0000   1.0000   1.0000   0.0000   0.0000   0.0000   0.0000

          k =-0.4714 0.3143-0.0000 (   749 PWs)   bands (ev):

    -3.3566   0.0010   2.0264   3.8818   8.9964   9.9954  10.8419  12.8943

     occupation numbers 
     1.0000   1.0000   1.0000   1.0000   0.0000   0.0000   0.0000   0.0000

          k =-0.5500 0.3928 0.0786 (   745 PWs)   bands (ev):

    -2.6542  -0.8008   1.8787   3.4426   8.4797  10.4869  12.0243  12.5796

     occupation numbers 
     1.0000   1.0000   1.0000   1.0000   0.0000   0.0000   0.0000   0.0000

          k =-0.6285 0.4714 0.1571 (   751 PWs)   bands (ev):

    -3.0212  -0.3739   2.2686   3.3298   8.1874   9.8879  10.9763  13.5385

     occupation numbers 
     1.0000   1.0000   1.0000   1.0000   0.0000   0.0000   0.0000   0.0000

          k =-0.0000-0.1571-0.4714 (   753 PWs)   bands (ev):

    -3.8488   0.7081   2.9400   3.6388   7.7878   8.7834  11.4194  13.1426

     occupation numbers 
     1.0000   1.0000   1.0000   1.0000   0.0000   0.0000   0.0000   0.0000

          k =-0.0786-0.0786-0.3928 (   749 PWs)   bands (ev):

    -4.5003   1.6649   3.7252   4.0192   7.4245   9.1245  11.4884  11.8362

     occupation numbers 
     1.0000   1.0000   1.0000   1.0000   0.0000   0.0000   0.0000   0.0000

          k =-0.1571 0.0000-0.3143 (   749 PWs)   bands (ev):

    -4.8687   2.2280   3.6527   4.8667   8.3541   9.7841  10.3683  11.0118

     occupation numbers 
     1.0000   1.0000   1.0000   1.0000   0.0000   0.0000   0.0000   0.0000

          k =-0.2357 0.0786-0.2357 (   752 PWs)   bands (ev):

    -4.9284   1.9265   4.0054   5.4189   8.6768   9.5111   9.7720  12.0148

     occupation numbers 
     1.0000   1.0000   1.0000   1.0000   0.0000   0.0000   0.0000   0.0000

          k =-0.2357 0.0786-0.0786 (   749 PWs)   bands (ev):

    -5.3381   3.2181   4.8825   5.0124   8.1772   9.5020  10.2194  10.8682

     occupation numbers 
     1.0000   1.0000   1.0000   1.0000   0.0000   0.0000   0.0000   0.0000

          k =-0.3143 0.1571 0.0000 (   749 PWs)   bands (ev):

    -4.8687   2.2280   3.6527   4.8667   8.3541   9.7841  10.3683  11.0118

     occupation numbers 
     1.0000   1.0000   1.0000   1.0000   0.0000   0.0000   0.0000   0.0000

          k =-0.3928 0.2357 0.0786 (   752 PWs)   bands (ev):

    -4.1332   0.7391   3.0416   4.4279   8.7347   9.5787  10.7493  11.4501

     occupation numbers 
     1.0000   1.0000   1.0000   1.0000   0.0000   0.0000   0.0000   0.0000

          k =-0.4714 0.3143 0.1571 (   742 PWs)   bands (ev):

    -3.3347  -0.5517   2.8480   4.1040   8.8274   9.1681  11.3944  12.4917

     occupation numbers 
     1.0000   1.0000   1.0000   1.0000   0.0000   0.0000   0.0000   0.0000

          k =-0.5500 0.3928 0.2357 (   742 PWs)   bands (ev):

    -3.3347  -0.5517   2.8480   4.1040   8.8274   9.1681  11.3944  12.4917

     occupation numbers 
     1.0000   1.0000   1.0000   1.0000   0.0000   0.0000   0.0000   0.0000

          k = 0.0786-0.2357-0.3928 (   752 PWs)   bands (ev):

    -4.1332   0.7391   3.0416   4.4279   8.7347   9.5787  10.7493  11.4501

     occupation numbers 
     1.0000   1.0000   1.0000   1.0000   0.0000   0.0000   0.0000   0.0000

          k = 0.0000-0.1571-0.3143 (   749 PWs)   bands (ev):

    -4.8687   2.2281   3.6527   4.8667   8.3541   9.7841  10.3683  11.0118

     occupation numbers 
     1.0000   1.0000   1.0000   1.0000   0.0000   0.0000   0.0000   0.0000

          k =-0.0786-0.0786-0.2357 (   749 PWs)   bands (ev):

    -5.3381   3.2181   4.8825   5.0124   8.1772   9.5020  10.2194  10.8682

     occupation numbers 
     1.0000   1.0000   1.0000   1.0000   0.0000   0.0000   0.0000   0.0000

          k =-0.1571-0.0000-0.1571 (   759 PWs)   bands (ev):

    -5.4978   3.6932   4.6598   5.8122   8.9731   9.0113   9.1935  11.2987

     occupation numbers 
     1.0000   1.0000   1.0000   1.0000   0.0000   0.0000   0.0000   0.0000

          k =-0.1571 0.0000 0.0000 (   745 PWs)   bands (ev):

    -5.7100   4.9033   5.3558   5.3558   8.0953   9.5089   9.5089  10.1666

     occupation numbers 
     1.0000   1.0000   1.0000   1.0000   0.0000   0.0000   0.0000   0.0000

          k =-0.2357 0.0786 0.0786 (   749 PWs)   bands (ev):

    -5.3381   3.2181   4.8825   5.0124   8.1772   9.5020  10.2194  10.8682

     occupation numbers 
     1.0000   1.0000   1.0000   1.0000   0.0000   0.0000   0.0000   0.0000

          k =-0.3143 0.1571 0.1571 (   757 PWs)   bands (ev):

    -4.6774   1.3105   4.5029   4.5785   8.2819   9.4766  10.3866  11.3055

     occupation numbers 
     1.0000   1.0000   1.0000   1.0000   0.0000   0.0000   0.0000   0.0000

          k =-0.3928 0.2357 0.2357 (   754 PWs)   bands (ev):

    -3.8497  -0.2809   4.0663   4.4974   8.1526   9.3771  10.1056  12.7384

     occupation numbers 
     1.0000   1.0000   1.0000   1.0000   0.0000   0.0000   0.0000   0.0000

          k =-0.4714 0.3143 0.3143 (   754 PWs)   bands (ev):

    -3.4689  -0.8551   3.8072   4.6383   8.1562   9.3962   9.8409  14.0510

     occupation numbers 
     1.0000   1.0000   1.0000   1.0000   0.0000   0.0000   0.0000   0.0000

          k = 0.1571-0.3143-0.3143 (   751 PWs)   bands (ev):

    -4.1288   0.1961   3.7728   4.9692   8.3452   9.6233   9.7195  13.3150

     occupation numbers 
     1.0000   1.0000   1.0000   1.0000   0.0000   0.0000   0.0000   0.0000

          k = 0.0786-0.2357-0.2357 (   752 PWs)   bands (ev):

    -4.9284   1.9265   4.0054   5.4189   8.6768   9.5111   9.7720  12.0148

     occupation numbers 
     1.0000   1.0000   1.0000   1.0000   0.0000   0.0000   0.0000   0.0000

          k =-0.0000-0.1571-0.1571 (   759 PWs)   bands (ev):

    -5.4978   3.6932   4.6598   5.8122   8.9731   9.0113   9.1935  11.2987

     occupation numbers 
     1.0000   1.0000   1.0000   1.0000   0.0000   0.0000   0.0000   0.0000

          k =-0.0786-0.0786-0.0786 (   743 PWs)   bands (ev):

    -5.7642   4.6748   5.7970   5.7970   8.5023   8.9189   8.9189  10.3508

     occupation numbers 
     1.0000   1.0000   1.0000   1.0000   0.0000   0.0000   0.0000   0.0000

     the spin up/dw Fermi energies are     6.2697    6.2697 ev

!    total energy              =     -17.05023466 Ry
     estimated scf accuracy    <          5.1E-11 Ry
     smearing contrib. (-TS)   =      -0.00000245 Ry
     internal energy E=F+TS    =     -17.05023221 Ry

     The total energy is F=E-TS. E is the sum of the following terms:
     one-electron contribution =       4.84775446 Ry
     hartree contribution      =       1.09559660 Ry
     xc contribution           =      -6.19760895 Ry
     ewald contribution        =     -16.79597432 Ry

     total magnetization       =     0.00 Bohr mag/cell
     absolute magnetization    =     0.00 Bohr mag/cell

     convergence has been achieved in   8 iterations

     Forces acting on atoms (cartesian axes, Ry/au):

     atom    1 type  1   force =    -0.00000000    0.00000001    0.00000000
     atom    2 type  1   force =     0.00000000   -0.00000001   -0.00000000
     The non-local contrib.  to forces
     atom    1 type  1   force =     0.00000001   -0.00000001    0.00000006
     atom    2 type  1   force =     0.00000001    0.00000002   -0.00000004
     The ionic contribution  to forces
     atom    1 type  1   force =     0.00000000    0.00000000    0.00000000
     atom    2 type  1   force =    -0.00000000   -0.00000000   -0.00000000
     The local contribution  to forces
     atom    1 type  1   force =    -0.00000003    0.00000003   -0.00000010
     atom    2 type  1   force =    -0.00000001   -0.00000005    0.00000007
     The core correction contribution to forces
     atom    1 type  1   force =    -0.00000000    0.00000000   -0.00000000
     atom    2 type  1   force =    -0.00000000   -0.00000000    0.00000000
     The Hubbard contrib.    to forces
     atom    1 type  1   force =     0.00000000    0.00000000    0.00000000
     atom    2 type  1   force =     0.00000000    0.00000000    0.00000000
     The SCF correction term to forces
     atom    1 type  1   force =     0.00000002   -0.00000002    0.00000005
     atom    2 type  1   force =    -0.00000000    0.00000002   -0.00000003

     Total force =     0.000000     Total SCF correction =     0.000000
     SCF correction compared to forces is large: reduce conv_thr to get better values


     Computing stress (Cartesian axis) and pressure

          total   stress  (Ry/bohr**3)                   (kbar)     P=      -19.10
  -0.00012984   0.00000000  -0.00000000          -19.10        0.00       -0.00
   0.00000000  -0.00012984   0.00000000            0.00      -19.10        0.00
  -0.00000000   0.00000000  -0.00012984           -0.00        0.00      -19.10

     kinetic stress (kbar)   2234.27      0.00     -0.00
                                0.00   2234.27      0.00
                               -0.00      0.00   2234.27

     local   stress (kbar)   -419.27      0.00     -0.00
                                0.00   -419.27      0.00
                               -0.00      0.00   -419.27

     nonloc. stress (kbar)   1971.40     -0.00      0.00
                               -0.00   1971.40     -0.00
                                0.00     -0.00   1971.40

     hartree stress (kbar)    198.79     -0.00      0.00
                               -0.00    198.79     -0.00
                                0.00     -0.00    198.79

     exc-cor stress (kbar)   -149.75      0.00      0.00
                                0.00   -149.75      0.00
                                0.00      0.00   -149.75

     corecor stress (kbar)   -807.02      0.00     -0.00
                                0.00   -807.02      0.00
                               -0.00      0.00   -807.02

     ewald   stress (kbar)  -3047.51     -0.00      0.00
                               -0.00  -3047.51     -0.00
                                0.00     -0.00  -3047.51

     hubbard stress (kbar)      0.00      0.00      0.00
                                0.00      0.00      0.00
                                0.00      0.00      0.00

     DFT-D   stress (kbar)      0.00      0.00      0.00
                                0.00      0.00      0.00
                                0.00      0.00      0.00

     XDM     stress (kbar)      0.00      0.00      0.00
                                0.00      0.00      0.00
                                0.00      0.00      0.00

     dft-nl  stress (kbar)      0.00      0.00      0.00
                                0.00      0.00      0.00
                                0.00      0.00      0.00

     TS-vdW  stress (kbar)      0.00      0.00      0.00
                                0.00      0.00      0.00
                                0.00      0.00      0.00

     MDB     stress (kbar)      0.00      0.00      0.00
                                0.00      0.00      0.00
                                0.00      0.00      0.00

     3D-RISM stress (kbar)      0.00      0.00      0.00
                                0.00      0.00      0.00
                                0.00      0.00      0.00


     Writing all to output data dir ./out/si_lda_trial.save/ :
     XML data file, charge density, pseudopotentials, collected wavefunctions

     init_run     :      2.57s CPU      2.68s WALL (       1 calls)
     electrons    :    102.38s CPU    103.64s WALL (       1 calls)
     forces       :      2.37s CPU      2.38s WALL (       1 calls)
     stress       :     11.38s CPU     11.38s WALL (       1 calls)

     Called by init_run:
     wfcinit      :      2.39s CPU      2.50s WALL (       1 calls)
     wfcinit:atom :      0.08s CPU      0.08s WALL (    1458 calls)
     wfcinit:wfcr :      1.81s CPU      1.89s WALL (    1458 calls)
     potinit      :      0.01s CPU      0.01s WALL (       1 calls)
     hinit0       :      0.08s CPU      0.08s WALL (       1 calls)

     Called by electrons:
     c_bands      :     90.86s CPU     91.97s WALL (       9 calls)
     sum_band     :     11.47s CPU     11.61s WALL (       9 calls)
     v_of_rho     :      0.03s CPU      0.03s WALL (       9 calls)
     v_h          :      0.00s CPU      0.00s WALL (       9 calls)
     v_xc         :      0.03s CPU      0.03s WALL (      11 calls)
     mix_rho      :      0.01s CPU      0.01s WALL (       9 calls)

     Called by c_bands:
     init_us_2    :      6.19s CPU      6.28s WALL (   30618 calls)
     cegterg      :     77.43s CPU     78.35s WALL (   13122 calls)

     Called by sum_band:
     sum_band:wei :      0.03s CPU      0.03s WALL (       9 calls)
     sum_band:loo :     11.43s CPU     11.57s WALL (       9 calls)
     sum_band:buf :      0.14s CPU      0.14s WALL (   13122 calls)
     sum_band:ini :      2.73s CPU      2.76s WALL (   13122 calls)

     Called by *egterg:
     cdiaghg      :      2.99s CPU      3.04s WALL (   48087 calls)
     cegterg:over :      5.01s CPU      5.07s WALL (   36423 calls)
     cegterg:upda :      2.53s CPU      2.57s WALL (   36423 calls)
     cegterg:last :      3.89s CPU      3.94s WALL (   26888 calls)
     h_psi        :     61.50s CPU     62.30s WALL (   51003 calls)
     g_psi        :      0.52s CPU      0.53s WALL (   36423 calls)

     Called by h_psi:
     h_psi:calbec :      9.83s CPU      9.95s WALL (   51003 calls)
     vloc_psi     :     43.15s CPU     43.72s WALL (   51003 calls)
     add_vuspsi   :      7.99s CPU      8.11s WALL (   51003 calls)

     General routines
     calbec       :     11.94s CPU     12.09s WALL (   58293 calls)
     fft          :      0.04s CPU      0.04s WALL (      53 calls)
     ffts         :      0.00s CPU      0.00s WALL (      18 calls)
     fftw         :     42.69s CPU     43.27s WALL (  678070 calls)

     Parallel routines

     PWSCF        :   1m58.88s CPU   2m 0.41s WALL


   This run was terminated on:   8:26:45  16Sep2024            

=------------------------------------------------------------------------------=
   JOB DONE.
=------------------------------------------------------------------------------=
