
     Program PWSCF v.7.3.1 starts on 16Sep2024 at  8:23:14 

     This program is part of the open-source Quantum ESPRESSO suite
     for quantum simulation of materials; please cite
         "P. Giannozzi et al., J. Phys.:Condens. Matter 21 395502 (2009);
         "P. Giannozzi et al., J. Phys.:Condens. Matter 29 465901 (2017);
         "P. Giannozzi et al., J. Chem. Phys. 152 154105 (2020);
          URL http://www.quantum-espresso.org", 
     in publications or presentations arising from this work. More details at
     http://www.quantum-espresso.org/quote

     Parallel version (MPI), running on     1 processors

     MPI processes distributed on     1 nodes
     3395 MiB available memory on the printing compute node when the environment starts

     Waiting for input...
     Reading input from standard input

     Current dimensions of program PWSCF are:
     Max number of different atomic species (ntypx) = 10
     Max number of k-points (npk) =  40000
     Max angular momentum in pseudopotentials (lmaxx) =  4
     Message from routine volume:
     axis vectors are left-handed

     Subspace diagonalization in iterative solution of the eigenvalue problem:
     a serial algorithm will be used


     G-vector sticks info
     --------------------
     sticks:   dense  smooth     PW     G-vecs:    dense   smooth      PW
     Sum         433     433    151                 5985     5985    1211

     Using Slab Decomposition



     bravais-lattice index     =            0
     lattice parameter (alat)  =       7.2571  a.u.
     unit-cell volume          =     270.2504 (a.u.)^3
     number of atoms/cell      =            2
     number of atomic types    =            1
     number of electrons       =         8.00 (up:   4.00, down:   4.00)
     number of Kohn-Sham states=            8
     kinetic-energy cutoff     =      30.0000  Ry
     charge density cutoff     =     120.0000  Ry
     scf convergence threshold =      4.0E-10
     mixing beta               =       0.4000
     number of iterations used =            8  plain     mixing
     Exchange-correlation= SLA  PW   NOGX NOGC
                           (   1   4   0   0   0   0   0)

     celldm(1)=   7.257056  celldm(2)=   0.000000  celldm(3)=   0.000000
     celldm(4)=   0.000000  celldm(5)=   0.000000  celldm(6)=   0.000000

     crystal axes: (cart. coord. in units of alat)
               a(1) = (   0.707107   0.707107   0.000000 )  
               a(2) = (   0.707107   0.000000   0.707107 )  
               a(3) = (   0.000000   0.707107   0.707107 )  

     reciprocal axes: (cart. coord. in units 2 pi/alat)
               b(1) = (  0.707107  0.707107 -0.707107 )  
               b(2) = (  0.707107 -0.707107  0.707107 )  
               b(3) = ( -0.707107  0.707107  0.707107 )  


     PseudoPot. # 1 for Si read from file:
     ./pseudo/Si_lda.upf
     MD5 check sum: 9e2d726316af3d4752eea8ab0afbb951
     Pseudo is Norm-conserving + core correction, Zval =  4.0
     Generated using ONCVPSP code by D. R. Hamann
     Using radial grid of 1510 points,  6 beta functions with: 
                l(1) =   0
                l(2) =   0
                l(3) =   1
                l(4) =   1
                l(5) =   2
                l(6) =   2

     atomic species   valence    mass     pseudopotential
     Si                4.00    28.08550     Si( 1.00)

     Starting magnetic structure 
     atomic species   magnetization
     Si              0.000

     No symmetry found


                                    s                        frac. trans.

      isym =  1     identity                                     

 cryst.   s( 1) = (     1          0          0      )
                  (     0          1          0      )
                  (     0          0          1      )

 cart.    s( 1) = (  1.0000000  0.0000000  0.0000000 )
                  (  0.0000000  1.0000000  0.0000000 )
                  (  0.0000000  0.0000000  1.0000000 )


   Cartesian axes

     site n.     atom                  positions (alat units)
         1        Si     tau(   1) = (   0.0000000   0.0000000   0.0000000  )
         2        Si     tau(   2) = (   0.3535534   0.3535534   0.3535534  )

   Crystallographic axes

     site n.     atom                  positions (cryst. coord.)
         1        Si     tau(   1) = (  0.0000000  0.0000000  0.0000000  )
         2        Si     tau(   2) = (  0.2500000  0.2500000  0.2500000  )

     number of k points=   343  Gaussian smearing, width (Ry)=  0.0100
                       cart. coord. in units 2pi/alat
        k(    1) = (   0.0000000   0.0000000   0.0000000), wk =   0.0029155
        k(    2) = (  -0.1010153   0.1010153   0.1010153), wk =   0.0029155
        k(    3) = (  -0.2020305   0.2020305   0.2020305), wk =   0.0029155
        k(    4) = (  -0.3030458   0.3030458   0.3030458), wk =   0.0029155
        k(    5) = (   0.3030458  -0.3030458  -0.3030458), wk =   0.0029155
        k(    6) = (   0.2020305  -0.2020305  -0.2020305), wk =   0.0029155
        k(    7) = (   0.1010153  -0.1010153  -0.1010153), wk =   0.0029155
        k(    8) = (   0.1010153  -0.1010153   0.1010153), wk =   0.0029155
        k(    9) = (   0.0000000   0.0000000   0.2020305), wk =   0.0029155
        k(   10) = (  -0.1010153   0.1010153   0.3030458), wk =   0.0029155
        k(   11) = (  -0.2020305   0.2020305   0.4040610), wk =   0.0029155
        k(   12) = (   0.4040610  -0.4040610  -0.2020305), wk =   0.0029155
        k(   13) = (   0.3030458  -0.3030458  -0.1010153), wk =   0.0029155
        k(   14) = (   0.2020305  -0.2020305  -0.0000000), wk =   0.0029155
        k(   15) = (   0.2020305  -0.2020305   0.2020305), wk =   0.0029155
        k(   16) = (   0.1010153  -0.1010153   0.3030458), wk =   0.0029155
        k(   17) = (   0.0000000   0.0000000   0.4040610), wk =   0.0029155
        k(   18) = (  -0.1010153   0.1010153   0.5050763), wk =   0.0029155
        k(   19) = (   0.5050763  -0.5050763  -0.1010153), wk =   0.0029155
        k(   20) = (   0.4040610  -0.4040610   0.0000000), wk =   0.0029155
        k(   21) = (   0.3030458  -0.3030458   0.1010153), wk =   0.0029155
        k(   22) = (   0.3030458  -0.3030458   0.3030458), wk =   0.0029155
        k(   23) = (   0.2020305  -0.2020305   0.4040610), wk =   0.0029155
        k(   24) = (   0.1010153  -0.1010153   0.5050763), wk =   0.0029155
        k(   25) = (   0.0000000   0.0000000   0.6060915), wk =   0.0029155
        k(   26) = (   0.6060915  -0.6060915   0.0000000), wk =   0.0029155
        k(   27) = (   0.5050763  -0.5050763   0.1010153), wk =   0.0029155
        k(   28) = (   0.4040610  -0.4040610   0.2020305), wk =   0.0029155
        k(   29) = (  -0.3030458   0.3030458  -0.3030458), wk =   0.0029155
        k(   30) = (  -0.4040610   0.4040610  -0.2020305), wk =   0.0029155
        k(   31) = (  -0.5050763   0.5050763  -0.1010153), wk =   0.0029155
        k(   32) = (  -0.6060915   0.6060915   0.0000000), wk =   0.0029155
        k(   33) = (   0.0000000   0.0000000  -0.6060915), wk =   0.0029155
        k(   34) = (  -0.1010153   0.1010153  -0.5050763), wk =   0.0029155
        k(   35) = (  -0.2020305   0.2020305  -0.4040610), wk =   0.0029155
        k(   36) = (  -0.2020305   0.2020305  -0.2020305), wk =   0.0029155
        k(   37) = (  -0.3030458   0.3030458  -0.1010153), wk =   0.0029155
        k(   38) = (  -0.4040610   0.4040610   0.0000000), wk =   0.0029155
        k(   39) = (  -0.5050763   0.5050763   0.1010153), wk =   0.0029155
        k(   40) = (   0.1010153  -0.1010153  -0.5050763), wk =   0.0029155
        k(   41) = (   0.0000000   0.0000000  -0.4040610), wk =   0.0029155
        k(   42) = (  -0.1010153   0.1010153  -0.3030458), wk =   0.0029155
        k(   43) = (  -0.1010153   0.1010153  -0.1010153), wk =   0.0029155
        k(   44) = (  -0.2020305   0.2020305  -0.0000000), wk =   0.0029155
        k(   45) = (  -0.3030458   0.3030458   0.1010153), wk =   0.0029155
        k(   46) = (  -0.4040610   0.4040610   0.2020305), wk =   0.0029155
        k(   47) = (   0.2020305  -0.2020305  -0.4040610), wk =   0.0029155
        k(   48) = (   0.1010153  -0.1010153  -0.3030458), wk =   0.0029155
        k(   49) = (   0.0000000   0.0000000  -0.2020305), wk =   0.0029155
        k(   50) = (   0.1010153   0.1010153  -0.1010153), wk =   0.0029155
        k(   51) = (   0.0000000   0.2020305   0.0000000), wk =   0.0029155
        k(   52) = (  -0.1010153   0.3030458   0.1010153), wk =   0.0029155
        k(   53) = (  -0.2020305   0.4040610   0.2020305), wk =   0.0029155
        k(   54) = (   0.4040610  -0.2020305  -0.4040610), wk =   0.0029155
        k(   55) = (   0.3030458  -0.1010153  -0.3030458), wk =   0.0029155
        k(   56) = (   0.2020305  -0.0000000  -0.2020305), wk =   0.0029155
        k(   57) = (   0.2020305   0.0000000   0.0000000), wk =   0.0029155
        k(   58) = (   0.1010153   0.1010153   0.1010153), wk =   0.0029155
        k(   59) = (   0.0000000   0.2020305   0.2020305), wk =   0.0029155
        k(   60) = (  -0.1010153   0.3030458   0.3030458), wk =   0.0029155
        k(   61) = (   0.5050763  -0.3030458  -0.3030458), wk =   0.0029155
        k(   62) = (   0.4040610  -0.2020305  -0.2020305), wk =   0.0029155
        k(   63) = (   0.3030458  -0.1010153  -0.1010153), wk =   0.0029155
        k(   64) = (   0.3030458  -0.1010153   0.1010153), wk =   0.0029155
        k(   65) = (   0.2020305   0.0000000   0.2020305), wk =   0.0029155
        k(   66) = (   0.1010153   0.1010153   0.3030458), wk =   0.0029155
        k(   67) = (   0.0000000   0.2020305   0.4040610), wk =   0.0029155
        k(   68) = (   0.6060915  -0.4040610  -0.2020305), wk =   0.0029155
        k(   69) = (   0.5050763  -0.3030458  -0.1010153), wk =   0.0029155
        k(   70) = (   0.4040610  -0.2020305  -0.0000000), wk =   0.0029155
        k(   71) = (   0.4040610  -0.2020305   0.2020305), wk =   0.0029155
        k(   72) = (   0.3030458  -0.1010153   0.3030458), wk =   0.0029155
        k(   73) = (   0.2020305   0.0000000   0.4040610), wk =   0.0029155
        k(   74) = (   0.1010153   0.1010153   0.5050763), wk =   0.0029155
        k(   75) = (   0.7071068  -0.5050763  -0.1010153), wk =   0.0029155
        k(   76) = (   0.6060915  -0.4040610   0.0000000), wk =   0.0029155
        k(   77) = (   0.5050763  -0.3030458   0.1010153), wk =   0.0029155
        k(   78) = (  -0.2020305   0.4040610  -0.4040610), wk =   0.0029155
        k(   79) = (  -0.3030458   0.5050763  -0.3030458), wk =   0.0029155
        k(   80) = (  -0.4040610   0.6060915  -0.2020305), wk =   0.0029155
        k(   81) = (  -0.5050763   0.7071068  -0.1010153), wk =   0.0029155
        k(   82) = (   0.1010153   0.1010153  -0.7071068), wk =   0.0029155
        k(   83) = (   0.0000000   0.2020305  -0.6060915), wk =   0.0029155
        k(   84) = (  -0.1010153   0.3030458  -0.5050763), wk =   0.0029155
        k(   85) = (  -0.1010153   0.3030458  -0.3030458), wk =   0.0029155
        k(   86) = (  -0.2020305   0.4040610  -0.2020305), wk =   0.0029155
        k(   87) = (  -0.3030458   0.5050763  -0.1010153), wk =   0.0029155
        k(   88) = (  -0.4040610   0.6060915   0.0000000), wk =   0.0029155
        k(   89) = (   0.2020305   0.0000000  -0.6060915), wk =   0.0029155
        k(   90) = (   0.1010153   0.1010153  -0.5050763), wk =   0.0029155
        k(   91) = (   0.0000000   0.2020305  -0.4040610), wk =   0.0029155
        k(   92) = (  -0.0000000   0.2020305  -0.2020305), wk =   0.0029155
        k(   93) = (  -0.1010153   0.3030458  -0.1010153), wk =   0.0029155
        k(   94) = (  -0.2020305   0.4040610  -0.0000000), wk =   0.0029155
        k(   95) = (  -0.3030458   0.5050763   0.1010153), wk =   0.0029155
        k(   96) = (   0.3030458  -0.1010153  -0.5050763), wk =   0.0029155
        k(   97) = (   0.2020305   0.0000000  -0.4040610), wk =   0.0029155
        k(   98) = (   0.1010153   0.1010153  -0.3030458), wk =   0.0029155
        k(   99) = (   0.2020305   0.2020305  -0.2020305), wk =   0.0029155
        k(  100) = (   0.1010153   0.3030458  -0.1010153), wk =   0.0029155
        k(  101) = (   0.0000000   0.4040610   0.0000000), wk =   0.0029155
        k(  102) = (  -0.1010153   0.5050763   0.1010153), wk =   0.0029155
        k(  103) = (   0.5050763  -0.1010153  -0.5050763), wk =   0.0029155
        k(  104) = (   0.4040610   0.0000000  -0.4040610), wk =   0.0029155
        k(  105) = (   0.3030458   0.1010153  -0.3030458), wk =   0.0029155
        k(  106) = (   0.3030458   0.1010153  -0.1010153), wk =   0.0029155
        k(  107) = (   0.2020305   0.2020305   0.0000000), wk =   0.0029155
        k(  108) = (   0.1010153   0.3030458   0.1010153), wk =   0.0029155
        k(  109) = (   0.0000000   0.4040610   0.2020305), wk =   0.0029155
        k(  110) = (   0.6060915  -0.2020305  -0.4040610), wk =   0.0029155
        k(  111) = (   0.5050763  -0.1010153  -0.3030458), wk =   0.0029155
        k(  112) = (   0.4040610  -0.0000000  -0.2020305), wk =   0.0029155
        k(  113) = (   0.4040610   0.0000000   0.0000000), wk =   0.0029155
        k(  114) = (   0.3030458   0.1010153   0.1010153), wk =   0.0029155
        k(  115) = (   0.2020305   0.2020305   0.2020305), wk =   0.0029155
        k(  116) = (   0.1010153   0.3030458   0.3030458), wk =   0.0029155
        k(  117) = (   0.7071068  -0.3030458  -0.3030458), wk =   0.0029155
        k(  118) = (   0.6060915  -0.2020305  -0.2020305), wk =   0.0029155
        k(  119) = (   0.5050763  -0.1010153  -0.1010153), wk =   0.0029155
        k(  120) = (   0.5050763  -0.1010153   0.1010153), wk =   0.0029155
        k(  121) = (   0.4040610   0.0000000   0.2020305), wk =   0.0029155
        k(  122) = (   0.3030458   0.1010153   0.3030458), wk =   0.0029155
        k(  123) = (   0.2020305   0.2020305   0.4040610), wk =   0.0029155
        k(  124) = (   0.8081220  -0.4040610  -0.2020305), wk =   0.0029155
        k(  125) = (   0.7071068  -0.3030458  -0.1010153), wk =   0.0029155
        k(  126) = (   0.6060915  -0.2020305  -0.0000000), wk =   0.0029155
        k(  127) = (  -0.1010153   0.5050763  -0.5050763), wk =   0.0029155
        k(  128) = (  -0.2020305   0.6060915  -0.4040610), wk =   0.0029155
        k(  129) = (  -0.3030458   0.7071068  -0.3030458), wk =   0.0029155
        k(  130) = (  -0.4040610   0.8081220  -0.2020305), wk =   0.0029155
        k(  131) = (   0.2020305   0.2020305  -0.8081220), wk =   0.0029155
        k(  132) = (   0.1010153   0.3030458  -0.7071068), wk =   0.0029155
        k(  133) = (   0.0000000   0.4040610  -0.6060915), wk =   0.0029155
        k(  134) = (   0.0000000   0.4040610  -0.4040610), wk =   0.0029155
        k(  135) = (  -0.1010153   0.5050763  -0.3030458), wk =   0.0029155
        k(  136) = (  -0.2020305   0.6060915  -0.2020305), wk =   0.0029155
        k(  137) = (  -0.3030458   0.7071068  -0.1010153), wk =   0.0029155
        k(  138) = (   0.3030458   0.1010153  -0.7071068), wk =   0.0029155
        k(  139) = (   0.2020305   0.2020305  -0.6060915), wk =   0.0029155
        k(  140) = (   0.1010153   0.3030458  -0.5050763), wk =   0.0029155
        k(  141) = (   0.1010153   0.3030458  -0.3030458), wk =   0.0029155
        k(  142) = (  -0.0000000   0.4040610  -0.2020305), wk =   0.0029155
        k(  143) = (  -0.1010153   0.5050763  -0.1010153), wk =   0.0029155
        k(  144) = (  -0.2020305   0.6060915   0.0000000), wk =   0.0029155
        k(  145) = (   0.4040610   0.0000000  -0.6060915), wk =   0.0029155
        k(  146) = (   0.3030458   0.1010153  -0.5050763), wk =   0.0029155
        k(  147) = (   0.2020305   0.2020305  -0.4040610), wk =   0.0029155
        k(  148) = (   0.3030458   0.3030458  -0.3030458), wk =   0.0029155
        k(  149) = (   0.2020305   0.4040610  -0.2020305), wk =   0.0029155
        k(  150) = (   0.1010153   0.5050763  -0.1010153), wk =   0.0029155
        k(  151) = (   0.0000000   0.6060915   0.0000000), wk =   0.0029155
        k(  152) = (   0.6060915   0.0000000  -0.6060915), wk =   0.0029155
        k(  153) = (   0.5050763   0.1010153  -0.5050763), wk =   0.0029155
        k(  154) = (   0.4040610   0.2020305  -0.4040610), wk =   0.0029155
        k(  155) = (   0.4040610   0.2020305  -0.2020305), wk =   0.0029155
        k(  156) = (   0.3030458   0.3030458  -0.1010153), wk =   0.0029155
        k(  157) = (   0.2020305   0.4040610   0.0000000), wk =   0.0029155
        k(  158) = (   0.1010153   0.5050763   0.1010153), wk =   0.0029155
        k(  159) = (   0.7071068  -0.1010153  -0.5050763), wk =   0.0029155
        k(  160) = (   0.6060915   0.0000000  -0.4040610), wk =   0.0029155
        k(  161) = (   0.5050763   0.1010153  -0.3030458), wk =   0.0029155
        k(  162) = (   0.5050763   0.1010153  -0.1010153), wk =   0.0029155
        k(  163) = (   0.4040610   0.2020305   0.0000000), wk =   0.0029155
        k(  164) = (   0.3030458   0.3030458   0.1010153), wk =   0.0029155
        k(  165) = (   0.2020305   0.4040610   0.2020305), wk =   0.0029155
        k(  166) = (   0.8081220  -0.2020305  -0.4040610), wk =   0.0029155
        k(  167) = (   0.7071068  -0.1010153  -0.3030458), wk =   0.0029155
        k(  168) = (   0.6060915  -0.0000000  -0.2020305), wk =   0.0029155
        k(  169) = (   0.6060915   0.0000000   0.0000000), wk =   0.0029155
        k(  170) = (   0.5050763   0.1010153   0.1010153), wk =   0.0029155
        k(  171) = (   0.4040610   0.2020305   0.2020305), wk =   0.0029155
        k(  172) = (   0.3030458   0.3030458   0.3030458), wk =   0.0029155
        k(  173) = (   0.9091373  -0.3030458  -0.3030458), wk =   0.0029155
        k(  174) = (   0.8081220  -0.2020305  -0.2020305), wk =   0.0029155
        k(  175) = (   0.7071068  -0.1010153  -0.1010153), wk =   0.0029155
        k(  176) = (   0.0000000   0.6060915  -0.6060915), wk =   0.0029155
        k(  177) = (  -0.1010153   0.7071068  -0.5050763), wk =   0.0029155
        k(  178) = (  -0.2020305   0.8081220  -0.4040610), wk =   0.0029155
        k(  179) = (  -0.3030458   0.9091373  -0.3030458), wk =   0.0029155
        k(  180) = (   0.3030458   0.3030458  -0.9091373), wk =   0.0029155
        k(  181) = (   0.2020305   0.4040610  -0.8081220), wk =   0.0029155
        k(  182) = (   0.1010153   0.5050763  -0.7071068), wk =   0.0029155
        k(  183) = (   0.1010153   0.5050763  -0.5050763), wk =   0.0029155
        k(  184) = (   0.0000000   0.6060915  -0.4040610), wk =   0.0029155
        k(  185) = (  -0.1010153   0.7071068  -0.3030458), wk =   0.0029155
        k(  186) = (  -0.2020305   0.8081220  -0.2020305), wk =   0.0029155
        k(  187) = (   0.4040610   0.2020305  -0.8081220), wk =   0.0029155
        k(  188) = (   0.3030458   0.3030458  -0.7071068), wk =   0.0029155
        k(  189) = (   0.2020305   0.4040610  -0.6060915), wk =   0.0029155
        k(  190) = (   0.2020305   0.4040610  -0.4040610), wk =   0.0029155
        k(  191) = (   0.1010153   0.5050763  -0.3030458), wk =   0.0029155
        k(  192) = (  -0.0000000   0.6060915  -0.2020305), wk =   0.0029155
        k(  193) = (  -0.1010153   0.7071068  -0.1010153), wk =   0.0029155
        k(  194) = (   0.5050763   0.1010153  -0.7071068), wk =   0.0029155
        k(  195) = (   0.4040610   0.2020305  -0.6060915), wk =   0.0029155
        k(  196) = (   0.3030458   0.3030458  -0.5050763), wk =   0.0029155
        k(  197) = (  -0.3030458  -0.3030458   0.3030458), wk =   0.0029155
        k(  198) = (  -0.4040610  -0.2020305   0.4040610), wk =   0.0029155
        k(  199) = (  -0.5050763  -0.1010153   0.5050763), wk =   0.0029155
        k(  200) = (  -0.6060915   0.0000000   0.6060915), wk =   0.0029155
        k(  201) = (   0.0000000  -0.6060915   0.0000000), wk =   0.0029155
        k(  202) = (  -0.1010153  -0.5050763   0.1010153), wk =   0.0029155
        k(  203) = (  -0.2020305  -0.4040610   0.2020305), wk =   0.0029155
        k(  204) = (  -0.2020305  -0.4040610   0.4040610), wk =   0.0029155
        k(  205) = (  -0.3030458  -0.3030458   0.5050763), wk =   0.0029155
        k(  206) = (  -0.4040610  -0.2020305   0.6060915), wk =   0.0029155
        k(  207) = (  -0.5050763  -0.1010153   0.7071068), wk =   0.0029155
        k(  208) = (   0.1010153  -0.7071068   0.1010153), wk =   0.0029155
        k(  209) = (   0.0000000  -0.6060915   0.2020305), wk =   0.0029155
        k(  210) = (  -0.1010153  -0.5050763   0.3030458), wk =   0.0029155
        k(  211) = (  -0.1010153  -0.5050763   0.5050763), wk =   0.0029155
        k(  212) = (  -0.2020305  -0.4040610   0.6060915), wk =   0.0029155
        k(  213) = (  -0.3030458  -0.3030458   0.7071068), wk =   0.0029155
        k(  214) = (  -0.4040610  -0.2020305   0.8081220), wk =   0.0029155
        k(  215) = (   0.2020305  -0.8081220   0.2020305), wk =   0.0029155
        k(  216) = (   0.1010153  -0.7071068   0.3030458), wk =   0.0029155
        k(  217) = (   0.0000000  -0.6060915   0.4040610), wk =   0.0029155
        k(  218) = (   0.0000000  -0.6060915   0.6060915), wk =   0.0029155
        k(  219) = (  -0.1010153  -0.5050763   0.7071068), wk =   0.0029155
        k(  220) = (  -0.2020305  -0.4040610   0.8081220), wk =   0.0029155
        k(  221) = (  -0.3030458  -0.3030458   0.9091373), wk =   0.0029155
        k(  222) = (   0.3030458  -0.9091373   0.3030458), wk =   0.0029155
        k(  223) = (   0.2020305  -0.8081220   0.4040610), wk =   0.0029155
        k(  224) = (   0.1010153  -0.7071068   0.5050763), wk =   0.0029155
        k(  225) = (  -0.6060915   0.0000000   0.0000000), wk =   0.0029155
        k(  226) = (  -0.7071068   0.1010153   0.1010153), wk =   0.0029155
        k(  227) = (  -0.8081220   0.2020305   0.2020305), wk =   0.0029155
        k(  228) = (  -0.9091373   0.3030458   0.3030458), wk =   0.0029155
        k(  229) = (  -0.3030458  -0.3030458  -0.3030458), wk =   0.0029155
        k(  230) = (  -0.4040610  -0.2020305  -0.2020305), wk =   0.0029155
        k(  231) = (  -0.5050763  -0.1010153  -0.1010153), wk =   0.0029155
        k(  232) = (  -0.5050763  -0.1010153   0.1010153), wk =   0.0029155
        k(  233) = (  -0.6060915   0.0000000   0.2020305), wk =   0.0029155
        k(  234) = (  -0.7071068   0.1010153   0.3030458), wk =   0.0029155
        k(  235) = (  -0.8081220   0.2020305   0.4040610), wk =   0.0029155
        k(  236) = (  -0.2020305  -0.4040610  -0.2020305), wk =   0.0029155
        k(  237) = (  -0.3030458  -0.3030458  -0.1010153), wk =   0.0029155
        k(  238) = (  -0.4040610  -0.2020305  -0.0000000), wk =   0.0029155
        k(  239) = (  -0.4040610  -0.2020305   0.2020305), wk =   0.0029155
        k(  240) = (  -0.5050763  -0.1010153   0.3030458), wk =   0.0029155
        k(  241) = (  -0.6060915   0.0000000   0.4040610), wk =   0.0029155
        k(  242) = (  -0.7071068   0.1010153   0.5050763), wk =   0.0029155
        k(  243) = (  -0.1010153  -0.5050763  -0.1010153), wk =   0.0029155
        k(  244) = (  -0.2020305  -0.4040610  -0.0000000), wk =   0.0029155
        k(  245) = (  -0.3030458  -0.3030458   0.1010153), wk =   0.0029155
        k(  246) = (  -0.2020305  -0.2020305   0.2020305), wk =   0.0029155
        k(  247) = (  -0.3030458  -0.1010153   0.3030458), wk =   0.0029155
        k(  248) = (  -0.4040610   0.0000000   0.4040610), wk =   0.0029155
        k(  249) = (  -0.5050763   0.1010153   0.5050763), wk =   0.0029155
        k(  250) = (   0.1010153  -0.5050763  -0.1010153), wk =   0.0029155
        k(  251) = (   0.0000000  -0.4040610   0.0000000), wk =   0.0029155
        k(  252) = (  -0.1010153  -0.3030458   0.1010153), wk =   0.0029155
        k(  253) = (  -0.1010153  -0.3030458   0.3030458), wk =   0.0029155
        k(  254) = (  -0.2020305  -0.2020305   0.4040610), wk =   0.0029155
        k(  255) = (  -0.3030458  -0.1010153   0.5050763), wk =   0.0029155
        k(  256) = (  -0.4040610   0.0000000   0.6060915), wk =   0.0029155
        k(  257) = (   0.2020305  -0.6060915   0.0000000), wk =   0.0029155
        k(  258) = (   0.1010153  -0.5050763   0.1010153), wk =   0.0029155
        k(  259) = (   0.0000000  -0.4040610   0.2020305), wk =   0.0029155
        k(  260) = (   0.0000000  -0.4040610   0.4040610), wk =   0.0029155
        k(  261) = (  -0.1010153  -0.3030458   0.5050763), wk =   0.0029155
        k(  262) = (  -0.2020305  -0.2020305   0.6060915), wk =   0.0029155
        k(  263) = (  -0.3030458  -0.1010153   0.7071068), wk =   0.0029155
        k(  264) = (   0.3030458  -0.7071068   0.1010153), wk =   0.0029155
        k(  265) = (   0.2020305  -0.6060915   0.2020305), wk =   0.0029155
        k(  266) = (   0.1010153  -0.5050763   0.3030458), wk =   0.0029155
        k(  267) = (   0.1010153  -0.5050763   0.5050763), wk =   0.0029155
        k(  268) = (   0.0000000  -0.4040610   0.6060915), wk =   0.0029155
        k(  269) = (  -0.1010153  -0.3030458   0.7071068), wk =   0.0029155
        k(  270) = (  -0.2020305  -0.2020305   0.8081220), wk =   0.0029155
        k(  271) = (   0.4040610  -0.8081220   0.2020305), wk =   0.0029155
        k(  272) = (   0.3030458  -0.7071068   0.3030458), wk =   0.0029155
        k(  273) = (   0.2020305  -0.6060915   0.4040610), wk =   0.0029155
        k(  274) = (  -0.5050763   0.1010153  -0.1010153), wk =   0.0029155
        k(  275) = (  -0.6060915   0.2020305   0.0000000), wk =   0.0029155
        k(  276) = (  -0.7071068   0.3030458   0.1010153), wk =   0.0029155
        k(  277) = (  -0.8081220   0.4040610   0.2020305), wk =   0.0029155
        k(  278) = (  -0.2020305  -0.2020305  -0.4040610), wk =   0.0029155
        k(  279) = (  -0.3030458  -0.1010153  -0.3030458), wk =   0.0029155
        k(  280) = (  -0.4040610  -0.0000000  -0.2020305), wk =   0.0029155
        k(  281) = (  -0.4040610   0.0000000   0.0000000), wk =   0.0029155
        k(  282) = (  -0.5050763   0.1010153   0.1010153), wk =   0.0029155
        k(  283) = (  -0.6060915   0.2020305   0.2020305), wk =   0.0029155
        k(  284) = (  -0.7071068   0.3030458   0.3030458), wk =   0.0029155
        k(  285) = (  -0.1010153  -0.3030458  -0.3030458), wk =   0.0029155
        k(  286) = (  -0.2020305  -0.2020305  -0.2020305), wk =   0.0029155
        k(  287) = (  -0.3030458  -0.1010153  -0.1010153), wk =   0.0029155
        k(  288) = (  -0.3030458  -0.1010153   0.1010153), wk =   0.0029155
        k(  289) = (  -0.4040610   0.0000000   0.2020305), wk =   0.0029155
        k(  290) = (  -0.5050763   0.1010153   0.3030458), wk =   0.0029155
        k(  291) = (  -0.6060915   0.2020305   0.4040610), wk =   0.0029155
        k(  292) = (   0.0000000  -0.4040610  -0.2020305), wk =   0.0029155
        k(  293) = (  -0.1010153  -0.3030458  -0.1010153), wk =   0.0029155
        k(  294) = (  -0.2020305  -0.2020305  -0.0000000), wk =   0.0029155
        k(  295) = (  -0.1010153  -0.1010153   0.1010153), wk =   0.0029155
        k(  296) = (  -0.2020305  -0.0000000   0.2020305), wk =   0.0029155
        k(  297) = (  -0.3030458   0.1010153   0.3030458), wk =   0.0029155
        k(  298) = (  -0.4040610   0.2020305   0.4040610), wk =   0.0029155
        k(  299) = (   0.2020305  -0.4040610  -0.2020305), wk =   0.0029155
        k(  300) = (   0.1010153  -0.3030458  -0.1010153), wk =   0.0029155
        k(  301) = (   0.0000000  -0.2020305   0.0000000), wk =   0.0029155
        k(  302) = (  -0.0000000  -0.2020305   0.2020305), wk =   0.0029155
        k(  303) = (  -0.1010153  -0.1010153   0.3030458), wk =   0.0029155
        k(  304) = (  -0.2020305  -0.0000000   0.4040610), wk =   0.0029155
        k(  305) = (  -0.3030458   0.1010153   0.5050763), wk =   0.0029155
        k(  306) = (   0.3030458  -0.5050763  -0.1010153), wk =   0.0029155
        k(  307) = (   0.2020305  -0.4040610   0.0000000), wk =   0.0029155
        k(  308) = (   0.1010153  -0.3030458   0.1010153), wk =   0.0029155
        k(  309) = (   0.1010153  -0.3030458   0.3030458), wk =   0.0029155
        k(  310) = (  -0.0000000  -0.2020305   0.4040610), wk =   0.0029155
        k(  311) = (  -0.1010153  -0.1010153   0.5050763), wk =   0.0029155
        k(  312) = (  -0.2020305   0.0000000   0.6060915), wk =   0.0029155
        k(  313) = (   0.4040610  -0.6060915   0.0000000), wk =   0.0029155
        k(  314) = (   0.3030458  -0.5050763   0.1010153), wk =   0.0029155
        k(  315) = (   0.2020305  -0.4040610   0.2020305), wk =   0.0029155
        k(  316) = (   0.2020305  -0.4040610   0.4040610), wk =   0.0029155
        k(  317) = (   0.1010153  -0.3030458   0.5050763), wk =   0.0029155
        k(  318) = (  -0.0000000  -0.2020305   0.6060915), wk =   0.0029155
        k(  319) = (  -0.1010153  -0.1010153   0.7071068), wk =   0.0029155
        k(  320) = (   0.5050763  -0.7071068   0.1010153), wk =   0.0029155
        k(  321) = (   0.4040610  -0.6060915   0.2020305), wk =   0.0029155
        k(  322) = (   0.3030458  -0.5050763   0.3030458), wk =   0.0029155
        k(  323) = (  -0.4040610   0.2020305  -0.2020305), wk =   0.0029155
        k(  324) = (  -0.5050763   0.3030458  -0.1010153), wk =   0.0029155
        k(  325) = (  -0.6060915   0.4040610   0.0000000), wk =   0.0029155
        k(  326) = (  -0.7071068   0.5050763   0.1010153), wk =   0.0029155
        k(  327) = (  -0.1010153  -0.1010153  -0.5050763), wk =   0.0029155
        k(  328) = (  -0.2020305  -0.0000000  -0.4040610), wk =   0.0029155
        k(  329) = (  -0.3030458   0.1010153  -0.3030458), wk =   0.0029155
        k(  330) = (  -0.3030458   0.1010153  -0.1010153), wk =   0.0029155
        k(  331) = (  -0.4040610   0.2020305   0.0000000), wk =   0.0029155
        k(  332) = (  -0.5050763   0.3030458   0.1010153), wk =   0.0029155
        k(  333) = (  -0.6060915   0.4040610   0.2020305), wk =   0.0029155
        k(  334) = (   0.0000000  -0.2020305  -0.4040610), wk =   0.0029155
        k(  335) = (  -0.1010153  -0.1010153  -0.3030458), wk =   0.0029155
        k(  336) = (  -0.2020305  -0.0000000  -0.2020305), wk =   0.0029155
        k(  337) = (  -0.2020305   0.0000000   0.0000000), wk =   0.0029155
        k(  338) = (  -0.3030458   0.1010153   0.1010153), wk =   0.0029155
        k(  339) = (  -0.4040610   0.2020305   0.2020305), wk =   0.0029155
        k(  340) = (  -0.5050763   0.3030458   0.3030458), wk =   0.0029155
        k(  341) = (   0.1010153  -0.3030458  -0.3030458), wk =   0.0029155
        k(  342) = (  -0.0000000  -0.2020305  -0.2020305), wk =   0.0029155
        k(  343) = (  -0.1010153  -0.1010153  -0.1010153), wk =   0.0029155

                       cryst. coord.
        k(    1) = (   0.0000000   0.0000000   0.0000000), wk =   0.0029155
        k(    2) = (   0.0000000   0.0000000   0.1428571), wk =   0.0029155
        k(    3) = (   0.0000000   0.0000000   0.2857143), wk =   0.0029155
        k(    4) = (   0.0000000   0.0000000   0.4285714), wk =   0.0029155
        k(    5) = (   0.0000000   0.0000000  -0.4285714), wk =   0.0029155
        k(    6) = (   0.0000000   0.0000000  -0.2857143), wk =   0.0029155
        k(    7) = (   0.0000000   0.0000000  -0.1428571), wk =   0.0029155
        k(    8) = (   0.0000000   0.1428571   0.0000000), wk =   0.0029155
        k(    9) = (   0.0000000   0.1428571   0.1428571), wk =   0.0029155
        k(   10) = (   0.0000000   0.1428571   0.2857143), wk =   0.0029155
        k(   11) = (   0.0000000   0.1428571   0.4285714), wk =   0.0029155
        k(   12) = (   0.0000000   0.1428571  -0.4285714), wk =   0.0029155
        k(   13) = (   0.0000000   0.1428571  -0.2857143), wk =   0.0029155
        k(   14) = (   0.0000000   0.1428571  -0.1428571), wk =   0.0029155
        k(   15) = (   0.0000000   0.2857143   0.0000000), wk =   0.0029155
        k(   16) = (   0.0000000   0.2857143   0.1428571), wk =   0.0029155
        k(   17) = (   0.0000000   0.2857143   0.2857143), wk =   0.0029155
        k(   18) = (   0.0000000   0.2857143   0.4285714), wk =   0.0029155
        k(   19) = (   0.0000000   0.2857143  -0.4285714), wk =   0.0029155
        k(   20) = (   0.0000000   0.2857143  -0.2857143), wk =   0.0029155
        k(   21) = (   0.0000000   0.2857143  -0.1428571), wk =   0.0029155
        k(   22) = (   0.0000000   0.4285714   0.0000000), wk =   0.0029155
        k(   23) = (   0.0000000   0.4285714   0.1428571), wk =   0.0029155
        k(   24) = (   0.0000000   0.4285714   0.2857143), wk =   0.0029155
        k(   25) = (   0.0000000   0.4285714   0.4285714), wk =   0.0029155
        k(   26) = (   0.0000000   0.4285714  -0.4285714), wk =   0.0029155
        k(   27) = (   0.0000000   0.4285714  -0.2857143), wk =   0.0029155
        k(   28) = (   0.0000000   0.4285714  -0.1428571), wk =   0.0029155
        k(   29) = (   0.0000000  -0.4285714   0.0000000), wk =   0.0029155
        k(   30) = (   0.0000000  -0.4285714   0.1428571), wk =   0.0029155
        k(   31) = (   0.0000000  -0.4285714   0.2857143), wk =   0.0029155
        k(   32) = (   0.0000000  -0.4285714   0.4285714), wk =   0.0029155
        k(   33) = (   0.0000000  -0.4285714  -0.4285714), wk =   0.0029155
        k(   34) = (   0.0000000  -0.4285714  -0.2857143), wk =   0.0029155
        k(   35) = (   0.0000000  -0.4285714  -0.1428571), wk =   0.0029155
        k(   36) = (   0.0000000  -0.2857143   0.0000000), wk =   0.0029155
        k(   37) = (   0.0000000  -0.2857143   0.1428571), wk =   0.0029155
        k(   38) = (   0.0000000  -0.2857143   0.2857143), wk =   0.0029155
        k(   39) = (   0.0000000  -0.2857143   0.4285714), wk =   0.0029155
        k(   40) = (   0.0000000  -0.2857143  -0.4285714), wk =   0.0029155
        k(   41) = (   0.0000000  -0.2857143  -0.2857143), wk =   0.0029155
        k(   42) = (   0.0000000  -0.2857143  -0.1428571), wk =   0.0029155
        k(   43) = (   0.0000000  -0.1428571   0.0000000), wk =   0.0029155
        k(   44) = (   0.0000000  -0.1428571   0.1428571), wk =   0.0029155
        k(   45) = (   0.0000000  -0.1428571   0.2857143), wk =   0.0029155
        k(   46) = (   0.0000000  -0.1428571   0.4285714), wk =   0.0029155
        k(   47) = (   0.0000000  -0.1428571  -0.4285714), wk =   0.0029155
        k(   48) = (   0.0000000  -0.1428571  -0.2857143), wk =   0.0029155
        k(   49) = (   0.0000000  -0.1428571  -0.1428571), wk =   0.0029155
        k(   50) = (   0.1428571   0.0000000   0.0000000), wk =   0.0029155
        k(   51) = (   0.1428571   0.0000000   0.1428571), wk =   0.0029155
        k(   52) = (   0.1428571   0.0000000   0.2857143), wk =   0.0029155
        k(   53) = (   0.1428571   0.0000000   0.4285714), wk =   0.0029155
        k(   54) = (   0.1428571   0.0000000  -0.4285714), wk =   0.0029155
        k(   55) = (   0.1428571   0.0000000  -0.2857143), wk =   0.0029155
        k(   56) = (   0.1428571   0.0000000  -0.1428571), wk =   0.0029155
        k(   57) = (   0.1428571   0.1428571   0.0000000), wk =   0.0029155
        k(   58) = (   0.1428571   0.1428571   0.1428571), wk =   0.0029155
        k(   59) = (   0.1428571   0.1428571   0.2857143), wk =   0.0029155
        k(   60) = (   0.1428571   0.1428571   0.4285714), wk =   0.0029155
        k(   61) = (   0.1428571   0.1428571  -0.4285714), wk =   0.0029155
        k(   62) = (   0.1428571   0.1428571  -0.2857143), wk =   0.0029155
        k(   63) = (   0.1428571   0.1428571  -0.1428571), wk =   0.0029155
        k(   64) = (   0.1428571   0.2857143   0.0000000), wk =   0.0029155
        k(   65) = (   0.1428571   0.2857143   0.1428571), wk =   0.0029155
        k(   66) = (   0.1428571   0.2857143   0.2857143), wk =   0.0029155
        k(   67) = (   0.1428571   0.2857143   0.4285714), wk =   0.0029155
        k(   68) = (   0.1428571   0.2857143  -0.4285714), wk =   0.0029155
        k(   69) = (   0.1428571   0.2857143  -0.2857143), wk =   0.0029155
        k(   70) = (   0.1428571   0.2857143  -0.1428571), wk =   0.0029155
        k(   71) = (   0.1428571   0.4285714   0.0000000), wk =   0.0029155
        k(   72) = (   0.1428571   0.4285714   0.1428571), wk =   0.0029155
        k(   73) = (   0.1428571   0.4285714   0.2857143), wk =   0.0029155
        k(   74) = (   0.1428571   0.4285714   0.4285714), wk =   0.0029155
        k(   75) = (   0.1428571   0.4285714  -0.4285714), wk =   0.0029155
        k(   76) = (   0.1428571   0.4285714  -0.2857143), wk =   0.0029155
        k(   77) = (   0.1428571   0.4285714  -0.1428571), wk =   0.0029155
        k(   78) = (   0.1428571  -0.4285714   0.0000000), wk =   0.0029155
        k(   79) = (   0.1428571  -0.4285714   0.1428571), wk =   0.0029155
        k(   80) = (   0.1428571  -0.4285714   0.2857143), wk =   0.0029155
        k(   81) = (   0.1428571  -0.4285714   0.4285714), wk =   0.0029155
        k(   82) = (   0.1428571  -0.4285714  -0.4285714), wk =   0.0029155
        k(   83) = (   0.1428571  -0.4285714  -0.2857143), wk =   0.0029155
        k(   84) = (   0.1428571  -0.4285714  -0.1428571), wk =   0.0029155
        k(   85) = (   0.1428571  -0.2857143   0.0000000), wk =   0.0029155
        k(   86) = (   0.1428571  -0.2857143   0.1428571), wk =   0.0029155
        k(   87) = (   0.1428571  -0.2857143   0.2857143), wk =   0.0029155
        k(   88) = (   0.1428571  -0.2857143   0.4285714), wk =   0.0029155
        k(   89) = (   0.1428571  -0.2857143  -0.4285714), wk =   0.0029155
        k(   90) = (   0.1428571  -0.2857143  -0.2857143), wk =   0.0029155
        k(   91) = (   0.1428571  -0.2857143  -0.1428571), wk =   0.0029155
        k(   92) = (   0.1428571  -0.1428571   0.0000000), wk =   0.0029155
        k(   93) = (   0.1428571  -0.1428571   0.1428571), wk =   0.0029155
        k(   94) = (   0.1428571  -0.1428571   0.2857143), wk =   0.0029155
        k(   95) = (   0.1428571  -0.1428571   0.4285714), wk =   0.0029155
        k(   96) = (   0.1428571  -0.1428571  -0.4285714), wk =   0.0029155
        k(   97) = (   0.1428571  -0.1428571  -0.2857143), wk =   0.0029155
        k(   98) = (   0.1428571  -0.1428571  -0.1428571), wk =   0.0029155
        k(   99) = (   0.2857143   0.0000000   0.0000000), wk =   0.0029155
        k(  100) = (   0.2857143   0.0000000   0.1428571), wk =   0.0029155
        k(  101) = (   0.2857143   0.0000000   0.2857143), wk =   0.0029155
        k(  102) = (   0.2857143   0.0000000   0.4285714), wk =   0.0029155
        k(  103) = (   0.2857143   0.0000000  -0.4285714), wk =   0.0029155
        k(  104) = (   0.2857143   0.0000000  -0.2857143), wk =   0.0029155
        k(  105) = (   0.2857143   0.0000000  -0.1428571), wk =   0.0029155
        k(  106) = (   0.2857143   0.1428571   0.0000000), wk =   0.0029155
        k(  107) = (   0.2857143   0.1428571   0.1428571), wk =   0.0029155
        k(  108) = (   0.2857143   0.1428571   0.2857143), wk =   0.0029155
        k(  109) = (   0.2857143   0.1428571   0.4285714), wk =   0.0029155
        k(  110) = (   0.2857143   0.1428571  -0.4285714), wk =   0.0029155
        k(  111) = (   0.2857143   0.1428571  -0.2857143), wk =   0.0029155
        k(  112) = (   0.2857143   0.1428571  -0.1428571), wk =   0.0029155
        k(  113) = (   0.2857143   0.2857143   0.0000000), wk =   0.0029155
        k(  114) = (   0.2857143   0.2857143   0.1428571), wk =   0.0029155
        k(  115) = (   0.2857143   0.2857143   0.2857143), wk =   0.0029155
        k(  116) = (   0.2857143   0.2857143   0.4285714), wk =   0.0029155
        k(  117) = (   0.2857143   0.2857143  -0.4285714), wk =   0.0029155
        k(  118) = (   0.2857143   0.2857143  -0.2857143), wk =   0.0029155
        k(  119) = (   0.2857143   0.2857143  -0.1428571), wk =   0.0029155
        k(  120) = (   0.2857143   0.4285714   0.0000000), wk =   0.0029155
        k(  121) = (   0.2857143   0.4285714   0.1428571), wk =   0.0029155
        k(  122) = (   0.2857143   0.4285714   0.2857143), wk =   0.0029155
        k(  123) = (   0.2857143   0.4285714   0.4285714), wk =   0.0029155
        k(  124) = (   0.2857143   0.4285714  -0.4285714), wk =   0.0029155
        k(  125) = (   0.2857143   0.4285714  -0.2857143), wk =   0.0029155
        k(  126) = (   0.2857143   0.4285714  -0.1428571), wk =   0.0029155
        k(  127) = (   0.2857143  -0.4285714   0.0000000), wk =   0.0029155
        k(  128) = (   0.2857143  -0.4285714   0.1428571), wk =   0.0029155
        k(  129) = (   0.2857143  -0.4285714   0.2857143), wk =   0.0029155
        k(  130) = (   0.2857143  -0.4285714   0.4285714), wk =   0.0029155
        k(  131) = (   0.2857143  -0.4285714  -0.4285714), wk =   0.0029155
        k(  132) = (   0.2857143  -0.4285714  -0.2857143), wk =   0.0029155
        k(  133) = (   0.2857143  -0.4285714  -0.1428571), wk =   0.0029155
        k(  134) = (   0.2857143  -0.2857143   0.0000000), wk =   0.0029155
        k(  135) = (   0.2857143  -0.2857143   0.1428571), wk =   0.0029155
        k(  136) = (   0.2857143  -0.2857143   0.2857143), wk =   0.0029155
        k(  137) = (   0.2857143  -0.2857143   0.4285714), wk =   0.0029155
        k(  138) = (   0.2857143  -0.2857143  -0.4285714), wk =   0.0029155
        k(  139) = (   0.2857143  -0.2857143  -0.2857143), wk =   0.0029155
        k(  140) = (   0.2857143  -0.2857143  -0.1428571), wk =   0.0029155
        k(  141) = (   0.2857143  -0.1428571   0.0000000), wk =   0.0029155
        k(  142) = (   0.2857143  -0.1428571   0.1428571), wk =   0.0029155
        k(  143) = (   0.2857143  -0.1428571   0.2857143), wk =   0.0029155
        k(  144) = (   0.2857143  -0.1428571   0.4285714), wk =   0.0029155
        k(  145) = (   0.2857143  -0.1428571  -0.4285714), wk =   0.0029155
        k(  146) = (   0.2857143  -0.1428571  -0.2857143), wk =   0.0029155
        k(  147) = (   0.2857143  -0.1428571  -0.1428571), wk =   0.0029155
        k(  148) = (   0.4285714   0.0000000   0.0000000), wk =   0.0029155
        k(  149) = (   0.4285714   0.0000000   0.1428571), wk =   0.0029155
        k(  150) = (   0.4285714   0.0000000   0.2857143), wk =   0.0029155
        k(  151) = (   0.4285714   0.0000000   0.4285714), wk =   0.0029155
        k(  152) = (   0.4285714   0.0000000  -0.4285714), wk =   0.0029155
        k(  153) = (   0.4285714   0.0000000  -0.2857143), wk =   0.0029155
        k(  154) = (   0.4285714   0.0000000  -0.1428571), wk =   0.0029155
        k(  155) = (   0.4285714   0.1428571   0.0000000), wk =   0.0029155
        k(  156) = (   0.4285714   0.1428571   0.1428571), wk =   0.0029155
        k(  157) = (   0.4285714   0.1428571   0.2857143), wk =   0.0029155
        k(  158) = (   0.4285714   0.1428571   0.4285714), wk =   0.0029155
        k(  159) = (   0.4285714   0.1428571  -0.4285714), wk =   0.0029155
        k(  160) = (   0.4285714   0.1428571  -0.2857143), wk =   0.0029155
        k(  161) = (   0.4285714   0.1428571  -0.1428571), wk =   0.0029155
        k(  162) = (   0.4285714   0.2857143   0.0000000), wk =   0.0029155
        k(  163) = (   0.4285714   0.2857143   0.1428571), wk =   0.0029155
        k(  164) = (   0.4285714   0.2857143   0.2857143), wk =   0.0029155
        k(  165) = (   0.4285714   0.2857143   0.4285714), wk =   0.0029155
        k(  166) = (   0.4285714   0.2857143  -0.4285714), wk =   0.0029155
        k(  167) = (   0.4285714   0.2857143  -0.2857143), wk =   0.0029155
        k(  168) = (   0.4285714   0.2857143  -0.1428571), wk =   0.0029155
        k(  169) = (   0.4285714   0.4285714   0.0000000), wk =   0.0029155
        k(  170) = (   0.4285714   0.4285714   0.1428571), wk =   0.0029155
        k(  171) = (   0.4285714   0.4285714   0.2857143), wk =   0.0029155
        k(  172) = (   0.4285714   0.4285714   0.4285714), wk =   0.0029155
        k(  173) = (   0.4285714   0.4285714  -0.4285714), wk =   0.0029155
        k(  174) = (   0.4285714   0.4285714  -0.2857143), wk =   0.0029155
        k(  175) = (   0.4285714   0.4285714  -0.1428571), wk =   0.0029155
        k(  176) = (   0.4285714  -0.4285714   0.0000000), wk =   0.0029155
        k(  177) = (   0.4285714  -0.4285714   0.1428571), wk =   0.0029155
        k(  178) = (   0.4285714  -0.4285714   0.2857143), wk =   0.0029155
        k(  179) = (   0.4285714  -0.4285714   0.4285714), wk =   0.0029155
        k(  180) = (   0.4285714  -0.4285714  -0.4285714), wk =   0.0029155
        k(  181) = (   0.4285714  -0.4285714  -0.2857143), wk =   0.0029155
        k(  182) = (   0.4285714  -0.4285714  -0.1428571), wk =   0.0029155
        k(  183) = (   0.4285714  -0.2857143   0.0000000), wk =   0.0029155
        k(  184) = (   0.4285714  -0.2857143   0.1428571), wk =   0.0029155
        k(  185) = (   0.4285714  -0.2857143   0.2857143), wk =   0.0029155
        k(  186) = (   0.4285714  -0.2857143   0.4285714), wk =   0.0029155
        k(  187) = (   0.4285714  -0.2857143  -0.4285714), wk =   0.0029155
        k(  188) = (   0.4285714  -0.2857143  -0.2857143), wk =   0.0029155
        k(  189) = (   0.4285714  -0.2857143  -0.1428571), wk =   0.0029155
        k(  190) = (   0.4285714  -0.1428571   0.0000000), wk =   0.0029155
        k(  191) = (   0.4285714  -0.1428571   0.1428571), wk =   0.0029155
        k(  192) = (   0.4285714  -0.1428571   0.2857143), wk =   0.0029155
        k(  193) = (   0.4285714  -0.1428571   0.4285714), wk =   0.0029155
        k(  194) = (   0.4285714  -0.1428571  -0.4285714), wk =   0.0029155
        k(  195) = (   0.4285714  -0.1428571  -0.2857143), wk =   0.0029155
        k(  196) = (   0.4285714  -0.1428571  -0.1428571), wk =   0.0029155
        k(  197) = (  -0.4285714   0.0000000   0.0000000), wk =   0.0029155
        k(  198) = (  -0.4285714   0.0000000   0.1428571), wk =   0.0029155
        k(  199) = (  -0.4285714   0.0000000   0.2857143), wk =   0.0029155
        k(  200) = (  -0.4285714   0.0000000   0.4285714), wk =   0.0029155
        k(  201) = (  -0.4285714   0.0000000  -0.4285714), wk =   0.0029155
        k(  202) = (  -0.4285714   0.0000000  -0.2857143), wk =   0.0029155
        k(  203) = (  -0.4285714   0.0000000  -0.1428571), wk =   0.0029155
        k(  204) = (  -0.4285714   0.1428571   0.0000000), wk =   0.0029155
        k(  205) = (  -0.4285714   0.1428571   0.1428571), wk =   0.0029155
        k(  206) = (  -0.4285714   0.1428571   0.2857143), wk =   0.0029155
        k(  207) = (  -0.4285714   0.1428571   0.4285714), wk =   0.0029155
        k(  208) = (  -0.4285714   0.1428571  -0.4285714), wk =   0.0029155
        k(  209) = (  -0.4285714   0.1428571  -0.2857143), wk =   0.0029155
        k(  210) = (  -0.4285714   0.1428571  -0.1428571), wk =   0.0029155
        k(  211) = (  -0.4285714   0.2857143   0.0000000), wk =   0.0029155
        k(  212) = (  -0.4285714   0.2857143   0.1428571), wk =   0.0029155
        k(  213) = (  -0.4285714   0.2857143   0.2857143), wk =   0.0029155
        k(  214) = (  -0.4285714   0.2857143   0.4285714), wk =   0.0029155
        k(  215) = (  -0.4285714   0.2857143  -0.4285714), wk =   0.0029155
        k(  216) = (  -0.4285714   0.2857143  -0.2857143), wk =   0.0029155
        k(  217) = (  -0.4285714   0.2857143  -0.1428571), wk =   0.0029155
        k(  218) = (  -0.4285714   0.4285714   0.0000000), wk =   0.0029155
        k(  219) = (  -0.4285714   0.4285714   0.1428571), wk =   0.0029155
        k(  220) = (  -0.4285714   0.4285714   0.2857143), wk =   0.0029155
        k(  221) = (  -0.4285714   0.4285714   0.4285714), wk =   0.0029155
        k(  222) = (  -0.4285714   0.4285714  -0.4285714), wk =   0.0029155
        k(  223) = (  -0.4285714   0.4285714  -0.2857143), wk =   0.0029155
        k(  224) = (  -0.4285714   0.4285714  -0.1428571), wk =   0.0029155
        k(  225) = (  -0.4285714  -0.4285714   0.0000000), wk =   0.0029155
        k(  226) = (  -0.4285714  -0.4285714   0.1428571), wk =   0.0029155
        k(  227) = (  -0.4285714  -0.4285714   0.2857143), wk =   0.0029155
        k(  228) = (  -0.4285714  -0.4285714   0.4285714), wk =   0.0029155
        k(  229) = (  -0.4285714  -0.4285714  -0.4285714), wk =   0.0029155
        k(  230) = (  -0.4285714  -0.4285714  -0.2857143), wk =   0.0029155
        k(  231) = (  -0.4285714  -0.4285714  -0.1428571), wk =   0.0029155
        k(  232) = (  -0.4285714  -0.2857143   0.0000000), wk =   0.0029155
        k(  233) = (  -0.4285714  -0.2857143   0.1428571), wk =   0.0029155
        k(  234) = (  -0.4285714  -0.2857143   0.2857143), wk =   0.0029155
        k(  235) = (  -0.4285714  -0.2857143   0.4285714), wk =   0.0029155
        k(  236) = (  -0.4285714  -0.2857143  -0.4285714), wk =   0.0029155
        k(  237) = (  -0.4285714  -0.2857143  -0.2857143), wk =   0.0029155
        k(  238) = (  -0.4285714  -0.2857143  -0.1428571), wk =   0.0029155
        k(  239) = (  -0.4285714  -0.1428571   0.0000000), wk =   0.0029155
        k(  240) = (  -0.4285714  -0.1428571   0.1428571), wk =   0.0029155
        k(  241) = (  -0.4285714  -0.1428571   0.2857143), wk =   0.0029155
        k(  242) = (  -0.4285714  -0.1428571   0.4285714), wk =   0.0029155
        k(  243) = (  -0.4285714  -0.1428571  -0.4285714), wk =   0.0029155
        k(  244) = (  -0.4285714  -0.1428571  -0.2857143), wk =   0.0029155
        k(  245) = (  -0.4285714  -0.1428571  -0.1428571), wk =   0.0029155
        k(  246) = (  -0.2857143   0.0000000   0.0000000), wk =   0.0029155
        k(  247) = (  -0.2857143   0.0000000   0.1428571), wk =   0.0029155
        k(  248) = (  -0.2857143   0.0000000   0.2857143), wk =   0.0029155
        k(  249) = (  -0.2857143   0.0000000   0.4285714), wk =   0.0029155
        k(  250) = (  -0.2857143   0.0000000  -0.4285714), wk =   0.0029155
        k(  251) = (  -0.2857143   0.0000000  -0.2857143), wk =   0.0029155
        k(  252) = (  -0.2857143   0.0000000  -0.1428571), wk =   0.0029155
        k(  253) = (  -0.2857143   0.1428571   0.0000000), wk =   0.0029155
        k(  254) = (  -0.2857143   0.1428571   0.1428571), wk =   0.0029155
        k(  255) = (  -0.2857143   0.1428571   0.2857143), wk =   0.0029155
        k(  256) = (  -0.2857143   0.1428571   0.4285714), wk =   0.0029155
        k(  257) = (  -0.2857143   0.1428571  -0.4285714), wk =   0.0029155
        k(  258) = (  -0.2857143   0.1428571  -0.2857143), wk =   0.0029155
        k(  259) = (  -0.2857143   0.1428571  -0.1428571), wk =   0.0029155
        k(  260) = (  -0.2857143   0.2857143   0.0000000), wk =   0.0029155
        k(  261) = (  -0.2857143   0.2857143   0.1428571), wk =   0.0029155
        k(  262) = (  -0.2857143   0.2857143   0.2857143), wk =   0.0029155
        k(  263) = (  -0.2857143   0.2857143   0.4285714), wk =   0.0029155
        k(  264) = (  -0.2857143   0.2857143  -0.4285714), wk =   0.0029155
        k(  265) = (  -0.2857143   0.2857143  -0.2857143), wk =   0.0029155
        k(  266) = (  -0.2857143   0.2857143  -0.1428571), wk =   0.0029155
        k(  267) = (  -0.2857143   0.4285714   0.0000000), wk =   0.0029155
        k(  268) = (  -0.2857143   0.4285714   0.1428571), wk =   0.0029155
        k(  269) = (  -0.2857143   0.4285714   0.2857143), wk =   0.0029155
        k(  270) = (  -0.2857143   0.4285714   0.4285714), wk =   0.0029155
        k(  271) = (  -0.2857143   0.4285714  -0.4285714), wk =   0.0029155
        k(  272) = (  -0.2857143   0.4285714  -0.2857143), wk =   0.0029155
        k(  273) = (  -0.2857143   0.4285714  -0.1428571), wk =   0.0029155
        k(  274) = (  -0.2857143  -0.4285714   0.0000000), wk =   0.0029155
        k(  275) = (  -0.2857143  -0.4285714   0.1428571), wk =   0.0029155
        k(  276) = (  -0.2857143  -0.4285714   0.2857143), wk =   0.0029155
        k(  277) = (  -0.2857143  -0.4285714   0.4285714), wk =   0.0029155
        k(  278) = (  -0.2857143  -0.4285714  -0.4285714), wk =   0.0029155
        k(  279) = (  -0.2857143  -0.4285714  -0.2857143), wk =   0.0029155
        k(  280) = (  -0.2857143  -0.4285714  -0.1428571), wk =   0.0029155
        k(  281) = (  -0.2857143  -0.2857143   0.0000000), wk =   0.0029155
        k(  282) = (  -0.2857143  -0.2857143   0.1428571), wk =   0.0029155
        k(  283) = (  -0.2857143  -0.2857143   0.2857143), wk =   0.0029155
        k(  284) = (  -0.2857143  -0.2857143   0.4285714), wk =   0.0029155
        k(  285) = (  -0.2857143  -0.2857143  -0.4285714), wk =   0.0029155
        k(  286) = (  -0.2857143  -0.2857143  -0.2857143), wk =   0.0029155
        k(  287) = (  -0.2857143  -0.2857143  -0.1428571), wk =   0.0029155
        k(  288) = (  -0.2857143  -0.1428571   0.0000000), wk =   0.0029155
        k(  289) = (  -0.2857143  -0.1428571   0.1428571), wk =   0.0029155
        k(  290) = (  -0.2857143  -0.1428571   0.2857143), wk =   0.0029155
        k(  291) = (  -0.2857143  -0.1428571   0.4285714), wk =   0.0029155
        k(  292) = (  -0.2857143  -0.1428571  -0.4285714), wk =   0.0029155
        k(  293) = (  -0.2857143  -0.1428571  -0.2857143), wk =   0.0029155
        k(  294) = (  -0.2857143  -0.1428571  -0.1428571), wk =   0.0029155
        k(  295) = (  -0.1428571   0.0000000   0.0000000), wk =   0.0029155
        k(  296) = (  -0.1428571   0.0000000   0.1428571), wk =   0.0029155
        k(  297) = (  -0.1428571   0.0000000   0.2857143), wk =   0.0029155
        k(  298) = (  -0.1428571   0.0000000   0.4285714), wk =   0.0029155
        k(  299) = (  -0.1428571   0.0000000  -0.4285714), wk =   0.0029155
        k(  300) = (  -0.1428571   0.0000000  -0.2857143), wk =   0.0029155
        k(  301) = (  -0.1428571   0.0000000  -0.1428571), wk =   0.0029155
        k(  302) = (  -0.1428571   0.1428571   0.0000000), wk =   0.0029155
        k(  303) = (  -0.1428571   0.1428571   0.1428571), wk =   0.0029155
        k(  304) = (  -0.1428571   0.1428571   0.2857143), wk =   0.0029155
        k(  305) = (  -0.1428571   0.1428571   0.4285714), wk =   0.0029155
        k(  306) = (  -0.1428571   0.1428571  -0.4285714), wk =   0.0029155
        k(  307) = (  -0.1428571   0.1428571  -0.2857143), wk =   0.0029155
        k(  308) = (  -0.1428571   0.1428571  -0.1428571), wk =   0.0029155
        k(  309) = (  -0.1428571   0.2857143   0.0000000), wk =   0.0029155
        k(  310) = (  -0.1428571   0.2857143   0.1428571), wk =   0.0029155
        k(  311) = (  -0.1428571   0.2857143   0.2857143), wk =   0.0029155
        k(  312) = (  -0.1428571   0.2857143   0.4285714), wk =   0.0029155
        k(  313) = (  -0.1428571   0.2857143  -0.4285714), wk =   0.0029155
        k(  314) = (  -0.1428571   0.2857143  -0.2857143), wk =   0.0029155
        k(  315) = (  -0.1428571   0.2857143  -0.1428571), wk =   0.0029155
        k(  316) = (  -0.1428571   0.4285714   0.0000000), wk =   0.0029155
        k(  317) = (  -0.1428571   0.4285714   0.1428571), wk =   0.0029155
        k(  318) = (  -0.1428571   0.4285714   0.2857143), wk =   0.0029155
        k(  319) = (  -0.1428571   0.4285714   0.4285714), wk =   0.0029155
        k(  320) = (  -0.1428571   0.4285714  -0.4285714), wk =   0.0029155
        k(  321) = (  -0.1428571   0.4285714  -0.2857143), wk =   0.0029155
        k(  322) = (  -0.1428571   0.4285714  -0.1428571), wk =   0.0029155
        k(  323) = (  -0.1428571  -0.4285714   0.0000000), wk =   0.0029155
        k(  324) = (  -0.1428571  -0.4285714   0.1428571), wk =   0.0029155
        k(  325) = (  -0.1428571  -0.4285714   0.2857143), wk =   0.0029155
        k(  326) = (  -0.1428571  -0.4285714   0.4285714), wk =   0.0029155
        k(  327) = (  -0.1428571  -0.4285714  -0.4285714), wk =   0.0029155
        k(  328) = (  -0.1428571  -0.4285714  -0.2857143), wk =   0.0029155
        k(  329) = (  -0.1428571  -0.4285714  -0.1428571), wk =   0.0029155
        k(  330) = (  -0.1428571  -0.2857143   0.0000000), wk =   0.0029155
        k(  331) = (  -0.1428571  -0.2857143   0.1428571), wk =   0.0029155
        k(  332) = (  -0.1428571  -0.2857143   0.2857143), wk =   0.0029155
        k(  333) = (  -0.1428571  -0.2857143   0.4285714), wk =   0.0029155
        k(  334) = (  -0.1428571  -0.2857143  -0.4285714), wk =   0.0029155
        k(  335) = (  -0.1428571  -0.2857143  -0.2857143), wk =   0.0029155
        k(  336) = (  -0.1428571  -0.2857143  -0.1428571), wk =   0.0029155
        k(  337) = (  -0.1428571  -0.1428571   0.0000000), wk =   0.0029155
        k(  338) = (  -0.1428571  -0.1428571   0.1428571), wk =   0.0029155
        k(  339) = (  -0.1428571  -0.1428571   0.2857143), wk =   0.0029155
        k(  340) = (  -0.1428571  -0.1428571   0.4285714), wk =   0.0029155
        k(  341) = (  -0.1428571  -0.1428571  -0.4285714), wk =   0.0029155
        k(  342) = (  -0.1428571  -0.1428571  -0.2857143), wk =   0.0029155
        k(  343) = (  -0.1428571  -0.1428571  -0.1428571), wk =   0.0029155

     Dense  grid:     5985 G-vectors     FFT dimensions: (  25,  25,  25)

     Dynamical RAM for                 wfc:       0.09 MB

     Dynamical RAM for     wfc (w. buffer):      62.90 MB

     Dynamical RAM for           str. fact:       0.09 MB

     Dynamical RAM for           local pot:       0.00 MB

     Dynamical RAM for          nlocal pot:       0.41 MB

     Dynamical RAM for                qrad:       0.88 MB

     Dynamical RAM for          rho,v,vnew:       1.26 MB

     Dynamical RAM for               rhoin:       0.42 MB

     Dynamical RAM for            rho*nmix:       2.92 MB

     Dynamical RAM for           G-vectors:       0.39 MB

     Dynamical RAM for          h,s,v(r/c):       0.01 MB

     Dynamical RAM for          <psi|beta>:       0.00 MB

     Dynamical RAM for                 psi:       0.18 MB

     Dynamical RAM for                hpsi:       0.18 MB

     Dynamical RAM for      wfcinit/wfcrot:       0.18 MB

     Estimated static dynamical RAM per process >      67.25 MB

     Estimated max dynamical RAM per process >      70.56 MB
     Generating pointlists ...
     new r_m :   0.2526 (alat units)  1.8332 (a.u.) for type    1

     Initial potential from superposition of free atoms

     starting charge       7.9989, renormalised to       8.0000
     Starting wfcs are    8 randomized atomic wfcs

     total cpu time spent up to now is        1.3 secs

     Self-consistent Calculation

     iteration #  1     ecut=    30.00 Ry     beta= 0.40
     Davidson diagonalization with overlap

---- Real-time Memory Report at c_bands before calling an iterative solver
           100 MiB given to the printing process from OS
             0 MiB allocation reported by mallinfo(arena+hblkhd)
          3317 MiB available memory on the node where the printing process lives
------------------
     ethr =  1.00E-02,  avg # of iterations =  4.9

     Threshold (ethr) on eigenvalues was too large:
     Diagonalizing with lowered threshold

     Davidson diagonalization with overlap

---- Real-time Memory Report at c_bands before calling an iterative solver
           101 MiB given to the printing process from OS
             0 MiB allocation reported by mallinfo(arena+hblkhd)
          3317 MiB available memory on the node where the printing process lives
------------------
     ethr =  6.86E-04,  avg # of iterations =  1.2

     total cpu time spent up to now is        8.6 secs

     total energy              =     -17.05256790 Ry
     estimated scf accuracy    <       0.05885370 Ry

     total magnetization       =     0.00 Bohr mag/cell
     absolute magnetization    =     0.00 Bohr mag/cell

     iteration #  2     ecut=    30.00 Ry     beta= 0.40
     Davidson diagonalization with overlap

---- Real-time Memory Report at c_bands before calling an iterative solver
           104 MiB given to the printing process from OS
             0 MiB allocation reported by mallinfo(arena+hblkhd)
          3311 MiB available memory on the node where the printing process lives
------------------
     ethr =  7.36E-04,  avg # of iterations =  1.0

     total cpu time spent up to now is       11.2 secs

     total energy              =     -17.04854129 Ry
     estimated scf accuracy    <       0.01567208 Ry

     total magnetization       =    -0.00 Bohr mag/cell
     absolute magnetization    =     0.00 Bohr mag/cell

     iteration #  3     ecut=    30.00 Ry     beta= 0.40
     Davidson diagonalization with overlap

---- Real-time Memory Report at c_bands before calling an iterative solver
           105 MiB given to the printing process from OS
             0 MiB allocation reported by mallinfo(arena+hblkhd)
          3308 MiB available memory on the node where the printing process lives
------------------
     ethr =  1.96E-04,  avg # of iterations =  1.4

     total cpu time spent up to now is       13.9 secs

     total energy              =     -17.04956325 Ry
     estimated scf accuracy    <       0.00026666 Ry

     total magnetization       =     0.00 Bohr mag/cell
     absolute magnetization    =     0.00 Bohr mag/cell

     iteration #  4     ecut=    30.00 Ry     beta= 0.40
     Davidson diagonalization with overlap

---- Real-time Memory Report at c_bands before calling an iterative solver
           105 MiB given to the printing process from OS
             0 MiB allocation reported by mallinfo(arena+hblkhd)
          3304 MiB available memory on the node where the printing process lives
------------------
     ethr =  3.33E-06,  avg # of iterations =  6.3

     total cpu time spent up to now is       18.9 secs

     total energy              =     -17.04961002 Ry
     estimated scf accuracy    <       0.00001091 Ry

     total magnetization       =     0.00 Bohr mag/cell
     absolute magnetization    =     0.00 Bohr mag/cell

     iteration #  5     ecut=    30.00 Ry     beta= 0.40
     Davidson diagonalization with overlap

---- Real-time Memory Report at c_bands before calling an iterative solver
           105 MiB given to the printing process from OS
             0 MiB allocation reported by mallinfo(arena+hblkhd)
          3301 MiB available memory on the node where the printing process lives
------------------
     ethr =  1.36E-07,  avg # of iterations =  1.8

     total cpu time spent up to now is       21.9 secs

     total energy              =     -17.04961168 Ry
     estimated scf accuracy    <       0.00000029 Ry

     total magnetization       =    -0.00 Bohr mag/cell
     absolute magnetization    =     0.00 Bohr mag/cell

     iteration #  6     ecut=    30.00 Ry     beta= 0.40
     Davidson diagonalization with overlap

---- Real-time Memory Report at c_bands before calling an iterative solver
           106 MiB given to the printing process from OS
             0 MiB allocation reported by mallinfo(arena+hblkhd)
          3268 MiB available memory on the node where the printing process lives
------------------
     ethr =  3.67E-09,  avg # of iterations =  2.2

     total cpu time spent up to now is       25.9 secs

     total energy              =     -17.04961173 Ry
     estimated scf accuracy    <       0.00000004 Ry

     total magnetization       =    -0.00 Bohr mag/cell
     absolute magnetization    =     0.00 Bohr mag/cell

     iteration #  7     ecut=    30.00 Ry     beta= 0.40
     Davidson diagonalization with overlap

---- Real-time Memory Report at c_bands before calling an iterative solver
           106 MiB given to the printing process from OS
             0 MiB allocation reported by mallinfo(arena+hblkhd)
          3221 MiB available memory on the node where the printing process lives
------------------
     ethr =  5.23E-10,  avg # of iterations =  1.9

     Magnetic moment per site  (integrated on atomic sphere of radius R)
     atom   1 (R=0.253)  charge=  1.8351  magn=  0.0000
     atom   2 (R=0.253)  charge=  1.8378  magn= -0.0000

     total cpu time spent up to now is       30.8 secs

     End of self-consistent calculation

 ------ SPIN UP ------------


          k = 0.0000 0.0000 0.0000 (   749 PWs)   bands (ev):

    -5.9234   6.0378   6.0378   6.0378   8.5715   8.5715   8.5715   9.2053

     occupation numbers 
     1.0000   0.9913   0.9913   0.9913   0.0000   0.0000   0.0000   0.0000

          k =-0.1010 0.1010 0.1010 (   743 PWs)   bands (ev):

    -5.6574   4.0879   5.6804   5.6804   8.3893   9.0920   9.0920  10.9084

     occupation numbers 
     1.0000   1.0000   1.0000   1.0000   0.0000   0.0000   0.0000   0.0000

          k =-0.2020 0.2020 0.2020 (   757 PWs)   bands (ev):

    -4.8907   1.4646   5.1658   5.1658   7.8311   9.5417   9.5417  13.3231

     occupation numbers 
     1.0000   1.0000   1.0000   1.0000   0.0000   0.0000   0.0000   0.0000

          k =-0.3030 0.3030 0.3030 (   760 PWs)   bands (ev):

    -3.8467  -0.5704   4.8784   4.8784   7.5001   9.3869   9.3869  13.6326

     occupation numbers 
     1.0000   1.0000   1.0000   1.0000   0.0000   0.0000   0.0000   0.0000

          k = 0.3030-0.3030-0.3030 (   760 PWs)   bands (ev):

    -3.8467  -0.5704   4.8784   4.8784   7.5001   9.3869   9.3869  13.6326

     occupation numbers 
     1.0000   1.0000   1.0000   1.0000   0.0000   0.0000   0.0000   0.0000

          k = 0.2020-0.2020-0.2020 (   757 PWs)   bands (ev):

    -4.8907   1.4646   5.1658   5.1658   7.8311   9.5417   9.5417  13.3231

     occupation numbers 
     1.0000   1.0000   1.0000   1.0000   0.0000   0.0000   0.0000   0.0000

          k = 0.1010-0.1010-0.1010 (   743 PWs)   bands (ev):

    -5.6574   4.0879   5.6804   5.6804   8.3893   9.0920   9.0920  10.9084

     occupation numbers 
     1.0000   1.0000   1.0000   1.0000   0.0000   0.0000   0.0000   0.0000

          k = 0.1010-0.1010 0.1010 (   743 PWs)   bands (ev):

    -5.6574   4.0879   5.6804   5.6804   8.3893   9.0920   9.0920  10.9084

     occupation numbers 
     1.0000   1.0000   1.0000   1.0000   0.0000   0.0000   0.0000   0.0000

          k = 0.0000 0.0000 0.2020 (   753 PWs)   bands (ev):

    -5.5675   4.3841   5.0631   5.0631   7.8607   9.9738   9.9738  10.3316

     occupation numbers 
     1.0000   1.0000   1.0000   1.0000   0.0000   0.0000   0.0000   0.0000

          k =-0.1010 0.1010 0.3030 (   752 PWs)   bands (ev):

    -4.9606   2.2617   4.4701   4.5212   8.0476   9.8685  10.5349  10.7544

     occupation numbers 
     1.0000   1.0000   1.0000   1.0000   0.0000   0.0000   0.0000   0.0000

          k =-0.2020 0.2020 0.4041 (   748 PWs)   bands (ev):

    -3.9499   0.0742   3.7775   4.3339   8.1005   9.7930  10.5378  11.7474

     occupation numbers 
     1.0000   1.0000   1.0000   1.0000   0.0000   0.0000   0.0000   0.0000

          k = 0.4041-0.4041-0.2020 (   749 PWs)   bands (ev):

    -3.3875  -0.7942   3.3620   4.5333   8.1979   9.6969  10.1408  14.0870

     occupation numbers 
     1.0000   1.0000   1.0000   1.0000   0.0000   0.0000   0.0000   0.0000

          k = 0.3030-0.3030-0.1010 (   749 PWs)   bands (ev):

    -4.3193   0.7558   3.3651   5.0485   8.6056   9.9005   9.9040  12.5772

     occupation numbers 
     1.0000   1.0000   1.0000   1.0000   0.0000   0.0000   0.0000   0.0000

          k = 0.2020-0.2020-0.0000 (   753 PWs)   bands (ev):

    -5.2212   2.8822   4.0571   5.6421   9.0236   9.3003   9.5251  11.5607

     occupation numbers 
     1.0000   1.0000   1.0000   1.0000   0.0000   0.0000   0.0000   0.0000

          k = 0.2020-0.2020 0.2020 (   757 PWs)   bands (ev):

    -4.8907   1.4646   5.1658   5.1658   7.8311   9.5417   9.5417  13.3232

     occupation numbers 
     1.0000   1.0000   1.0000   1.0000   0.0000   0.0000   0.0000   0.0000

          k = 0.1010-0.1010 0.3030 (   752 PWs)   bands (ev):

    -4.9606   2.2617   4.4701   4.5212   8.0476   9.8685  10.5349  10.7544

     occupation numbers 
     1.0000   1.0000   1.0000   1.0000   0.0000   0.0000   0.0000   0.0000

          k = 0.0000 0.0000 0.4041 (   745 PWs)   bands (ev):

    -4.5170   1.8616   3.8981   3.8981   6.8863   8.5621  12.3764  12.3764

     occupation numbers 
     1.0000   1.0000   1.0000   1.0000   0.0000   0.0000   0.0000   0.0000

          k =-0.1010 0.1010 0.5051 (   756 PWs)   bands (ev):

    -3.6139   0.3619   2.9030   3.6388   7.1671   8.6580  12.5756  12.7724

     occupation numbers 
     1.0000   1.0000   1.0000   1.0000   0.0000   0.0000   0.0000   0.0000

          k = 0.5051-0.5051-0.1010 (   750 PWs)   bands (ev):

    -2.6920  -0.8195   1.9394   3.8086   7.4044  10.9061  12.2752  12.3024

     occupation numbers 
     1.0000   1.0000   1.0000   1.0000   0.0000   0.0000   0.0000   0.0000

          k = 0.4041-0.4041 0.0000 (   744 PWs)   bands (ev):

    -3.3441  -0.0672   1.8631   4.3595   8.0196  11.4529  11.7443  12.5339

     occupation numbers 
     1.0000   1.0000   1.0000   1.0000   0.0000   0.0000   0.0000   0.0000

          k = 0.3030-0.3030 0.1010 (   749 PWs)   bands (ev):

    -4.3193   0.7558   3.3651   5.0485   8.6056   9.9005   9.9040  12.5772

     occupation numbers 
     1.0000   1.0000   1.0000   1.0000   0.0000   0.0000   0.0000   0.0000

          k = 0.3030-0.3030 0.3030 (   760 PWs)   bands (ev):

    -3.8467  -0.5704   4.8784   4.8784   7.5001   9.3869   9.3869  13.6326

     occupation numbers 
     1.0000   1.0000   1.0000   1.0000   0.0000   0.0000   0.0000   0.0000

          k = 0.2020-0.2020 0.4041 (   748 PWs)   bands (ev):

    -3.9499   0.0742   3.7775   4.3339   8.1005   9.7930  10.5378  11.7474

     occupation numbers 
     1.0000   1.0000   1.0000   1.0000   0.0000   0.0000   0.0000   0.0000

          k = 0.1010-0.1010 0.5051 (   756 PWs)   bands (ev):

    -3.6139   0.3619   2.9030   3.6388   7.1671   8.6580  12.5756  12.7724

     occupation numbers 
     1.0000   1.0000   1.0000   1.0000   0.0000   0.0000   0.0000   0.0000

          k = 0.0000 0.0000 0.6061 (   749 PWs)   bands (ev):

    -2.8306  -0.6331   3.2667   3.2667   6.5188   7.0334  14.9980  14.9980

     occupation numbers 
     1.0000   1.0000   1.0000   1.0000   0.0044   0.0000   0.0000   0.0000

          k = 0.6061-0.6061 0.0000 (   752 PWs)   bands (ev):

    -1.8782  -1.5921   2.3527   3.3286   6.8198   8.0953  14.7812  15.1784

     occupation numbers 
     1.0000   1.0000   1.0000   1.0000   0.0000   0.0000   0.0000   0.0000

          k = 0.5051-0.5051 0.1010 (   750 PWs)   bands (ev):

    -2.6920  -0.8195   1.9394   3.8086   7.4044  10.9061  12.2752  12.3024

     occupation numbers 
     1.0000   1.0000   1.0000   1.0000   0.0000   0.0000   0.0000   0.0000

          k = 0.4041-0.4041 0.2020 (   749 PWs)   bands (ev):

    -3.3875  -0.7942   3.3620   4.5333   8.1979   9.6969  10.1408  14.0869

     occupation numbers 
     1.0000   1.0000   1.0000   1.0000   0.0000   0.0000   0.0000   0.0000

          k =-0.3030 0.3030-0.3030 (   760 PWs)   bands (ev):

    -3.8467  -0.5704   4.8784   4.8784   7.5001   9.3869   9.3869  13.6325

     occupation numbers 
     1.0000   1.0000   1.0000   1.0000   0.0000   0.0000   0.0000   0.0000

          k =-0.4041 0.4041-0.2020 (   749 PWs)   bands (ev):

    -3.3875  -0.7942   3.3620   4.5333   8.1979   9.6969  10.1408  14.0869

     occupation numbers 
     1.0000   1.0000   1.0000   1.0000   0.0000   0.0000   0.0000   0.0000

          k =-0.5051 0.5051-0.1010 (   750 PWs)   bands (ev):

    -2.6920  -0.8195   1.9394   3.8086   7.4044  10.9061  12.2752  12.3024

     occupation numbers 
     1.0000   1.0000   1.0000   1.0000   0.0000   0.0000   0.0000   0.0000

          k =-0.6061 0.6061 0.0000 (   752 PWs)   bands (ev):

    -1.8782  -1.5921   2.3527   3.3286   6.8198   8.0953  14.7812  15.1784

     occupation numbers 
     1.0000   1.0000   1.0000   1.0000   0.0000   0.0000   0.0000   0.0000

          k = 0.0000 0.0000-0.6061 (   749 PWs)   bands (ev):

    -2.8306  -0.6331   3.2667   3.2667   6.5188   7.0334  14.9979  14.9980

     occupation numbers 
     1.0000   1.0000   1.0000   1.0000   0.0044   0.0000   0.0000   0.0000

          k =-0.1010 0.1010-0.5051 (   756 PWs)   bands (ev):

    -3.6139   0.3619   2.9030   3.6388   7.1671   8.6580  12.5756  12.7724

     occupation numbers 
     1.0000   1.0000   1.0000   1.0000   0.0000   0.0000   0.0000   0.0000

          k =-0.2020 0.2020-0.4041 (   748 PWs)   bands (ev):

    -3.9499   0.0742   3.7775   4.3339   8.1005   9.7930  10.5378  11.7474

     occupation numbers 
     1.0000   1.0000   1.0000   1.0000   0.0000   0.0000   0.0000   0.0000

          k =-0.2020 0.2020-0.2020 (   757 PWs)   bands (ev):

    -4.8907   1.4646   5.1658   5.1658   7.8311   9.5417   9.5417  13.3231

     occupation numbers 
     1.0000   1.0000   1.0000   1.0000   0.0000   0.0000   0.0000   0.0000

          k =-0.3030 0.3030-0.1010 (   749 PWs)   bands (ev):

    -4.3193   0.7558   3.3651   5.0485   8.6056   9.9005   9.9040  12.5772

     occupation numbers 
     1.0000   1.0000   1.0000   1.0000   0.0000   0.0000   0.0000   0.0000

          k =-0.4041 0.4041 0.0000 (   744 PWs)   bands (ev):

    -3.3441  -0.0672   1.8631   4.3595   8.0196  11.4529  11.7443  12.5339

     occupation numbers 
     1.0000   1.0000   1.0000   1.0000   0.0000   0.0000   0.0000   0.0000

          k =-0.5051 0.5051 0.1010 (   750 PWs)   bands (ev):

    -2.6920  -0.8195   1.9394   3.8086   7.4044  10.9061  12.2752  12.3024

     occupation numbers 
     1.0000   1.0000   1.0000   1.0000   0.0000   0.0000   0.0000   0.0000

          k = 0.1010-0.1010-0.5051 (   756 PWs)   bands (ev):

    -3.6139   0.3619   2.9030   3.6388   7.1671   8.6580  12.5756  12.7724

     occupation numbers 
     1.0000   1.0000   1.0000   1.0000   0.0000   0.0000   0.0000   0.0000

          k = 0.0000 0.0000-0.4041 (   745 PWs)   bands (ev):

    -4.5170   1.8616   3.8981   3.8981   6.8863   8.5621  12.3764  12.3764

     occupation numbers 
     1.0000   1.0000   1.0000   1.0000   0.0000   0.0000   0.0000   0.0000

          k =-0.1010 0.1010-0.3030 (   752 PWs)   bands (ev):

    -4.9606   2.2617   4.4701   4.5212   8.0476   9.8685  10.5349  10.7545

     occupation numbers 
     1.0000   1.0000   1.0000   1.0000   0.0000   0.0000   0.0000   0.0000

          k =-0.1010 0.1010-0.1010 (   743 PWs)   bands (ev):

    -5.6574   4.0879   5.6804   5.6804   8.3893   9.0920   9.0920  10.9084

     occupation numbers 
     1.0000   1.0000   1.0000   1.0000   0.0000   0.0000   0.0000   0.0000

          k =-0.2020 0.2020-0.0000 (   753 PWs)   bands (ev):

    -5.2212   2.8822   4.0571   5.6421   9.0236   9.3004   9.5251  11.5607

     occupation numbers 
     1.0000   1.0000   1.0000   1.0000   0.0000   0.0000   0.0000   0.0000

          k =-0.3030 0.3030 0.1010 (   749 PWs)   bands (ev):

    -4.3193   0.7558   3.3651   5.0485   8.6056   9.9005   9.9040  12.5772

     occupation numbers 
     1.0000   1.0000   1.0000   1.0000   0.0000   0.0000   0.0000   0.0000

          k =-0.4041 0.4041 0.2020 (   749 PWs)   bands (ev):

    -3.3875  -0.7942   3.3620   4.5333   8.1979   9.6969  10.1408  14.0869

     occupation numbers 
     1.0000   1.0000   1.0000   1.0000   0.0000   0.0000   0.0000   0.0000

          k = 0.2020-0.2020-0.4041 (   748 PWs)   bands (ev):

    -3.9499   0.0742   3.7775   4.3339   8.1005   9.7930  10.5378  11.7474

     occupation numbers 
     1.0000   1.0000   1.0000   1.0000   0.0000   0.0000   0.0000   0.0000

          k = 0.1010-0.1010-0.3030 (   752 PWs)   bands (ev):

    -4.9606   2.2617   4.4701   4.5212   8.0476   9.8685  10.5349  10.7544

     occupation numbers 
     1.0000   1.0000   1.0000   1.0000   0.0000   0.0000   0.0000   0.0000

          k = 0.0000 0.0000-0.2020 (   753 PWs)   bands (ev):

    -5.5675   4.3841   5.0631   5.0631   7.8607   9.9738   9.9738  10.3316

     occupation numbers 
     1.0000   1.0000   1.0000   1.0000   0.0000   0.0000   0.0000   0.0000

          k = 0.1010 0.1010-0.1010 (   743 PWs)   bands (ev):

    -5.6574   4.0879   5.6804   5.6804   8.3893   9.0920   9.0920  10.9084

     occupation numbers 
     1.0000   1.0000   1.0000   1.0000   0.0000   0.0000   0.0000   0.0000

          k = 0.0000 0.2020 0.0000 (   753 PWs)   bands (ev):

    -5.5675   4.3841   5.0631   5.0631   7.8607   9.9738   9.9738  10.3316

     occupation numbers 
     1.0000   1.0000   1.0000   1.0000   0.0000   0.0000   0.0000   0.0000

          k =-0.1010 0.3030 0.1010 (   752 PWs)   bands (ev):

    -4.9606   2.2617   4.4701   4.5212   8.0476   9.8685  10.5349  10.7545

     occupation numbers 
     1.0000   1.0000   1.0000   1.0000   0.0000   0.0000   0.0000   0.0000

          k =-0.2020 0.4041 0.2020 (   748 PWs)   bands (ev):

    -3.9499   0.0742   3.7775   4.3339   8.1005   9.7930  10.5378  11.7474

     occupation numbers 
     1.0000   1.0000   1.0000   1.0000   0.0000   0.0000   0.0000   0.0000

          k = 0.4041-0.2020-0.4041 (   749 PWs)   bands (ev):

    -3.3875  -0.7942   3.3620   4.5333   8.1979   9.6969  10.1408  14.0869

     occupation numbers 
     1.0000   1.0000   1.0000   1.0000   0.0000   0.0000   0.0000   0.0000

          k = 0.3030-0.1010-0.3030 (   749 PWs)   bands (ev):

    -4.3193   0.7558   3.3651   5.0485   8.6056   9.9005   9.9040  12.5772

     occupation numbers 
     1.0000   1.0000   1.0000   1.0000   0.0000   0.0000   0.0000   0.0000

          k = 0.2020-0.0000-0.2020 (   753 PWs)   bands (ev):

    -5.2212   2.8822   4.0571   5.6421   9.0236   9.3003   9.5251  11.5607

     occupation numbers 
     1.0000   1.0000   1.0000   1.0000   0.0000   0.0000   0.0000   0.0000

          k = 0.2020 0.0000 0.0000 (   753 PWs)   bands (ev):

    -5.5675   4.3841   5.0631   5.0631   7.8607   9.9738   9.9738  10.3316

     occupation numbers 
     1.0000   1.0000   1.0000   1.0000   0.0000   0.0000   0.0000   0.0000

          k = 0.1010 0.1010 0.1010 (   743 PWs)   bands (ev):

    -5.6574   4.0879   5.6804   5.6804   8.3893   9.0920   9.0920  10.9084

     occupation numbers 
     1.0000   1.0000   1.0000   1.0000   0.0000   0.0000   0.0000   0.0000

          k = 0.0000 0.2020 0.2020 (   753 PWs)   bands (ev):

    -5.2212   2.8822   4.0571   5.6421   9.0236   9.3003   9.5251  11.5607

     occupation numbers 
     1.0000   1.0000   1.0000   1.0000   0.0000   0.0000   0.0000   0.0000

          k =-0.1010 0.3030 0.3030 (   749 PWs)   bands (ev):

    -4.3193   0.7558   3.3651   5.0485   8.6056   9.9005   9.9040  12.5772

     occupation numbers 
     1.0000   1.0000   1.0000   1.0000   0.0000   0.0000   0.0000   0.0000

          k = 0.5051-0.3030-0.3030 (   749 PWs)   bands (ev):

    -3.3875  -0.7942   3.3620   4.5333   8.1979   9.6969  10.1408  14.0869

     occupation numbers 
     1.0000   1.0000   1.0000   1.0000   0.0000   0.0000   0.0000   0.0000

          k = 0.4041-0.2020-0.2020 (   748 PWs)   bands (ev):

    -3.9499   0.0742   3.7775   4.3339   8.1005   9.7930  10.5378  11.7474

     occupation numbers 
     1.0000   1.0000   1.0000   1.0000   0.0000   0.0000   0.0000   0.0000

          k = 0.3030-0.1010-0.1010 (   752 PWs)   bands (ev):

    -4.9606   2.2617   4.4701   4.5212   8.0476   9.8685  10.5349  10.7545

     occupation numbers 
     1.0000   1.0000   1.0000   1.0000   0.0000   0.0000   0.0000   0.0000

          k = 0.3030-0.1010 0.1010 (   752 PWs)   bands (ev):

    -4.9606   2.2617   4.4701   4.5212   8.0476   9.8685  10.5349  10.7545

     occupation numbers 
     1.0000   1.0000   1.0000   1.0000   0.0000   0.0000   0.0000   0.0000

          k = 0.2020 0.0000 0.2020 (   753 PWs)   bands (ev):

    -5.2212   2.8822   4.0571   5.6421   9.0236   9.3004   9.5251  11.5607

     occupation numbers 
     1.0000   1.0000   1.0000   1.0000   0.0000   0.0000   0.0000   0.0000

          k = 0.1010 0.1010 0.3030 (   752 PWs)   bands (ev):

    -4.9606   2.2617   4.4701   4.5212   8.0476   9.8685  10.5349  10.7544

     occupation numbers 
     1.0000   1.0000   1.0000   1.0000   0.0000   0.0000   0.0000   0.0000

          k = 0.0000 0.2020 0.4041 (   753 PWs)   bands (ev):

    -4.2076   1.1262   2.9033   4.2441   8.5560   9.7924  10.1158  12.1241

     occupation numbers 
     1.0000   1.0000   1.0000   1.0000   0.0000   0.0000   0.0000   0.0000

          k = 0.6061-0.4041-0.2020 (   750 PWs)   bands (ev):

[...]

          k =-0.2020-0.2020-0.0000 (   753 PWs)   bands (ev):

    -5.2212   2.8822   4.0571   5.6421   9.0236   9.3004   9.5251  11.5607

     occupation numbers 
     1.0000   1.0000   1.0000   1.0000   0.0000   0.0000   0.0000   0.0000

          k =-0.1010-0.1010 0.1010 (   743 PWs)   bands (ev):

    -5.6574   4.0879   5.6804   5.6804   8.3893   9.0920   9.0920  10.9084

     occupation numbers 
     1.0000   1.0000   1.0000   1.0000   0.0000   0.0000   0.0000   0.0000

          k =-0.2020-0.0000 0.2020 (   753 PWs)   bands (ev):

    -5.2212   2.8822   4.0571   5.6421   9.0236   9.3003   9.5251  11.5607

     occupation numbers 
     1.0000   1.0000   1.0000   1.0000   0.0000   0.0000   0.0000   0.0000

          k =-0.3030 0.1010 0.3030 (   749 PWs)   bands (ev):

    -4.3193   0.7558   3.3651   5.0485   8.6056   9.9005   9.9040  12.5772

     occupation numbers 
     1.0000   1.0000   1.0000   1.0000   0.0000   0.0000   0.0000   0.0000

          k =-0.4041 0.2020 0.4041 (   749 PWs)   bands (ev):

    -3.3875  -0.7942   3.3620   4.5333   8.1979   9.6969  10.1408  14.0870

     occupation numbers 
     1.0000   1.0000   1.0000   1.0000   0.0000   0.0000   0.0000   0.0000

          k = 0.2020-0.4041-0.2020 (   748 PWs)   bands (ev):

    -3.9499   0.0742   3.7775   4.3339   8.1005   9.7930  10.5378  11.7474

     occupation numbers 
     1.0000   1.0000   1.0000   1.0000   0.0000   0.0000   0.0000   0.0000

          k = 0.1010-0.3030-0.1010 (   752 PWs)   bands (ev):

    -4.9606   2.2617   4.4701   4.5212   8.0476   9.8685  10.5349  10.7544

     occupation numbers 
     1.0000   1.0000   1.0000   1.0000   0.0000   0.0000   0.0000   0.0000

          k = 0.0000-0.2020 0.0000 (   753 PWs)   bands (ev):

    -5.5675   4.3841   5.0631   5.0631   7.8607   9.9738   9.9738  10.3316

     occupation numbers 
     1.0000   1.0000   1.0000   1.0000   0.0000   0.0000   0.0000   0.0000

          k =-0.0000-0.2020 0.2020 (   753 PWs)   bands (ev):

    -5.2212   2.8822   4.0571   5.6421   9.0236   9.3004   9.5251  11.5607

     occupation numbers 
     1.0000   1.0000   1.0000   1.0000   0.0000   0.0000   0.0000   0.0000

          k =-0.1010-0.1010 0.3030 (   752 PWs)   bands (ev):

    -4.9606   2.2617   4.4701   4.5212   8.0476   9.8685  10.5349  10.7544

     occupation numbers 
     1.0000   1.0000   1.0000   1.0000   0.0000   0.0000   0.0000   0.0000

          k =-0.2020-0.0000 0.4041 (   753 PWs)   bands (ev):

    -4.2076   1.1262   2.9033   4.2441   8.5560   9.7924  10.1158  12.1241

     occupation numbers 
     1.0000   1.0000   1.0000   1.0000   0.0000   0.0000   0.0000   0.0000

          k =-0.3030 0.1010 0.5051 (   750 PWs)   bands (ev):

    -3.1627  -0.4082   2.3278   3.7029   9.0347   9.4518  11.4341  12.5747

     occupation numbers 
     1.0000   1.0000   1.0000   1.0000   0.0000   0.0000   0.0000   0.0000

          k = 0.3030-0.5051-0.1010 (   750 PWs)   bands (ev):

    -3.1627  -0.4082   2.3278   3.7029   9.0347   9.4518  11.4341  12.5748

     occupation numbers 
     1.0000   1.0000   1.0000   1.0000   0.0000   0.0000   0.0000   0.0000

          k = 0.2020-0.4041 0.0000 (   753 PWs)   bands (ev):

    -4.2076   1.1262   2.9033   4.2441   8.5560   9.7924  10.1158  12.1241

     occupation numbers 
     1.0000   1.0000   1.0000   1.0000   0.0000   0.0000   0.0000   0.0000

          k = 0.1010-0.3030 0.1010 (   752 PWs)   bands (ev):

    -4.9606   2.2617   4.4701   4.5212   8.0476   9.8685  10.5349  10.7545

     occupation numbers 
     1.0000   1.0000   1.0000   1.0000   0.0000   0.0000   0.0000   0.0000

          k = 0.1010-0.3030 0.3030 (   749 PWs)   bands (ev):

    -4.3193   0.7558   3.3651   5.0485   8.6056   9.9005   9.9040  12.5772

     occupation numbers 
     1.0000   1.0000   1.0000   1.0000   0.0000   0.0000   0.0000   0.0000

          k =-0.0000-0.2020 0.4041 (   753 PWs)   bands (ev):

    -4.2076   1.1262   2.9033   4.2441   8.5560   9.7924  10.1158  12.1241

     occupation numbers 
     1.0000   1.0000   1.0000   1.0000   0.0000   0.0000   0.0000   0.0000

          k =-0.1010-0.1010 0.5051 (   756 PWs)   bands (ev):

    -3.6139   0.3619   2.9030   3.6388   7.1671   8.6580  12.5756  12.7724

     occupation numbers 
     1.0000   1.0000   1.0000   1.0000   0.0000   0.0000   0.0000   0.0000

          k =-0.2020 0.0000 0.6061 (   744 PWs)   bands (ev):

    -2.6239  -0.7173   2.4191   2.8347   8.1739   8.5366  12.1222  14.6172

     occupation numbers 
     1.0000   1.0000   1.0000   1.0000   0.0000   0.0000   0.0000   0.0000

          k = 0.4041-0.6061 0.0000 (   737 PWs)   bands (ev):

    -2.1839  -1.1149   1.7704   2.9265   8.7001  10.8048  11.6171  11.7515

     occupation numbers 
     1.0000   1.0000   1.0000   1.0000   0.0000   0.0000   0.0000   0.0000

          k = 0.3030-0.5051 0.1010 (   750 PWs)   bands (ev):

    -3.1627  -0.4082   2.3278   3.7029   9.0347   9.4518  11.4341  12.5747

     occupation numbers 
     1.0000   1.0000   1.0000   1.0000   0.0000   0.0000   0.0000   0.0000

          k = 0.2020-0.4041 0.2020 (   748 PWs)   bands (ev):

    -3.9499   0.0742   3.7775   4.3339   8.1005   9.7930  10.5378  11.7474

     occupation numbers 
     1.0000   1.0000   1.0000   1.0000   0.0000   0.0000   0.0000   0.0000

          k = 0.2020-0.4041 0.4041 (   749 PWs)   bands (ev):

    -3.3875  -0.7942   3.3620   4.5333   8.1979   9.6969  10.1408  14.0869

     occupation numbers 
     1.0000   1.0000   1.0000   1.0000   0.0000   0.0000   0.0000   0.0000

          k = 0.1010-0.3030 0.5051 (   750 PWs)   bands (ev):

    -3.1627  -0.4082   2.3278   3.7029   9.0347   9.4518  11.4341  12.5748

     occupation numbers 
     1.0000   1.0000   1.0000   1.0000   0.0000   0.0000   0.0000   0.0000

          k =-0.0000-0.2020 0.6061 (   744 PWs)   bands (ev):

    -2.6239  -0.7173   2.4191   2.8347   8.1739   8.5366  12.1222  14.6168

     occupation numbers 
     1.0000   1.0000   1.0000   1.0000   0.0000   0.0000   0.0000   0.0000

          k =-0.1010-0.1010 0.7071 (   752 PWs)   bands (ev):

    -1.8782  -1.5921   2.3527   3.3286   6.8198   8.0953  14.7812  15.1784

     occupation numbers 
     1.0000   1.0000   1.0000   1.0000   0.0000   0.0000   0.0000   0.0000

          k = 0.5051-0.7071 0.1010 (   744 PWs)   bands (ev):

    -2.6239  -0.7173   2.4191   2.8347   8.1739   8.5366  12.1222  14.6168

     occupation numbers 
     1.0000   1.0000   1.0000   1.0000   0.0000   0.0000   0.0000   0.0000

          k = 0.4041-0.6061 0.2020 (   750 PWs)   bands (ev):

    -3.1627  -0.4082   2.3278   3.7029   9.0347   9.4518  11.4341  12.5747

     occupation numbers 
     1.0000   1.0000   1.0000   1.0000   0.0000   0.0000   0.0000   0.0000

          k = 0.3030-0.5051 0.3030 (   749 PWs)   bands (ev):

    -3.3875  -0.7942   3.3620   4.5333   8.1979   9.6969  10.1408  14.0869

     occupation numbers 
     1.0000   1.0000   1.0000   1.0000   0.0000   0.0000   0.0000   0.0000

          k =-0.4041 0.2020-0.2020 (   748 PWs)   bands (ev):

    -3.9499   0.0742   3.7775   4.3339   8.1005   9.7930  10.5378  11.7474

     occupation numbers 
     1.0000   1.0000   1.0000   1.0000   0.0000   0.0000   0.0000   0.0000

          k =-0.5051 0.3030-0.1010 (   750 PWs)   bands (ev):

    -3.1627  -0.4082   2.3278   3.7029   9.0347   9.4518  11.4341  12.5748

     occupation numbers 
     1.0000   1.0000   1.0000   1.0000   0.0000   0.0000   0.0000   0.0000

          k =-0.6061 0.4041 0.0000 (   737 PWs)   bands (ev):

    -2.1839  -1.1149   1.7704   2.9265   8.7001  10.8048  11.6171  11.7515

     occupation numbers 
     1.0000   1.0000   1.0000   1.0000   0.0000   0.0000   0.0000   0.0000

          k =-0.7071 0.5051 0.1010 (   744 PWs)   bands (ev):

    -2.6239  -0.7173   2.4191   2.8347   8.1739   8.5366  12.1222  14.6172

     occupation numbers 
     1.0000   1.0000   1.0000   1.0000   0.0000   0.0000   0.0000   0.0000

          k =-0.1010-0.1010-0.5051 (   756 PWs)   bands (ev):

    -3.6139   0.3619   2.9030   3.6388   7.1671   8.6580  12.5756  12.7724

     occupation numbers 
     1.0000   1.0000   1.0000   1.0000   0.0000   0.0000   0.0000   0.0000

          k =-0.2020-0.0000-0.4041 (   753 PWs)   bands (ev):

    -4.2076   1.1262   2.9033   4.2441   8.5560   9.7924  10.1158  12.1241

     occupation numbers 
     1.0000   1.0000   1.0000   1.0000   0.0000   0.0000   0.0000   0.0000

          k =-0.3030 0.1010-0.3030 (   749 PWs)   bands (ev):

    -4.3193   0.7558   3.3651   5.0485   8.6056   9.9005   9.9040  12.5772

     occupation numbers 
     1.0000   1.0000   1.0000   1.0000   0.0000   0.0000   0.0000   0.0000

          k =-0.3030 0.1010-0.1010 (   752 PWs)   bands (ev):

    -4.9606   2.2617   4.4701   4.5212   8.0476   9.8685  10.5349  10.7545

     occupation numbers 
     1.0000   1.0000   1.0000   1.0000   0.0000   0.0000   0.0000   0.0000

          k =-0.4041 0.2020 0.0000 (   753 PWs)   bands (ev):

    -4.2076   1.1262   2.9033   4.2441   8.5560   9.7924  10.1158  12.1241

     occupation numbers 
     1.0000   1.0000   1.0000   1.0000   0.0000   0.0000   0.0000   0.0000

          k =-0.5051 0.3030 0.1010 (   750 PWs)   bands (ev):

    -3.1627  -0.4082   2.3278   3.7029   9.0347   9.4518  11.4341  12.5748

     occupation numbers 
     1.0000   1.0000   1.0000   1.0000   0.0000   0.0000   0.0000   0.0000

          k =-0.6061 0.4041 0.2020 (   750 PWs)   bands (ev):

    -3.1627  -0.4082   2.3278   3.7029   9.0347   9.4518  11.4341  12.5747

     occupation numbers 
     1.0000   1.0000   1.0000   1.0000   0.0000   0.0000   0.0000   0.0000

          k = 0.0000-0.2020-0.4041 (   753 PWs)   bands (ev):

    -4.2076   1.1262   2.9033   4.2441   8.5560   9.7924  10.1158  12.1241

     occupation numbers 
     1.0000   1.0000   1.0000   1.0000   0.0000   0.0000   0.0000   0.0000

          k =-0.1010-0.1010-0.3030 (   752 PWs)   bands (ev):

    -4.9606   2.2617   4.4701   4.5212   8.0476   9.8685  10.5349  10.7544

     occupation numbers 
     1.0000   1.0000   1.0000   1.0000   0.0000   0.0000   0.0000   0.0000

          k =-0.2020-0.0000-0.2020 (   753 PWs)   bands (ev):

    -5.2212   2.8822   4.0571   5.6421   9.0236   9.3004   9.5251  11.5607

     occupation numbers 
     1.0000   1.0000   1.0000   1.0000   0.0000   0.0000   0.0000   0.0000

          k =-0.2020 0.0000 0.0000 (   753 PWs)   bands (ev):

    -5.5675   4.3841   5.0631   5.0631   7.8607   9.9738   9.9738  10.3316

     occupation numbers 
     1.0000   1.0000   1.0000   1.0000   0.0000   0.0000   0.0000   0.0000

          k =-0.3030 0.1010 0.1010 (   752 PWs)   bands (ev):

    -4.9606   2.2617   4.4701   4.5212   8.0476   9.8685  10.5349  10.7544

     occupation numbers 
     1.0000   1.0000   1.0000   1.0000   0.0000   0.0000   0.0000   0.0000

          k =-0.4041 0.2020 0.2020 (   748 PWs)   bands (ev):

    -3.9499   0.0742   3.7775   4.3339   8.1005   9.7930  10.5378  11.7474

     occupation numbers 
     1.0000   1.0000   1.0000   1.0000   0.0000   0.0000   0.0000   0.0000

          k =-0.5051 0.3030 0.3030 (   749 PWs)   bands (ev):

    -3.3875  -0.7942   3.3620   4.5333   8.1979   9.6969  10.1408  14.0869

     occupation numbers 
     1.0000   1.0000   1.0000   1.0000   0.0000   0.0000   0.0000   0.0000

          k = 0.1010-0.3030-0.3030 (   749 PWs)   bands (ev):

    -4.3193   0.7558   3.3651   5.0485   8.6056   9.9005   9.9040  12.5772

     occupation numbers 
     1.0000   1.0000   1.0000   1.0000   0.0000   0.0000   0.0000   0.0000

          k =-0.0000-0.2020-0.2020 (   753 PWs)   bands (ev):

    -5.2212   2.8822   4.0571   5.6421   9.0236   9.3003   9.5251  11.5607

     occupation numbers 
     1.0000   1.0000   1.0000   1.0000   0.0000   0.0000   0.0000   0.0000

          k =-0.1010-0.1010-0.1010 (   743 PWs)   bands (ev):

    -5.6574   4.0879   5.6804   5.6804   8.3893   9.0920   9.0920  10.9084

     occupation numbers 
     1.0000   1.0000   1.0000   1.0000   0.0000   0.0000   0.0000   0.0000

     the spin up/dw Fermi energies are     6.2665    6.2665 ev

!    total energy              =     -17.04961174 Ry
     estimated scf accuracy    <          3.0E-10 Ry
     smearing contrib. (-TS)   =      -0.00000609 Ry
     internal energy E=F+TS    =     -17.04960564 Ry

     The total energy is F=E-TS. E is the sum of the following terms:
     one-electron contribution =       4.84741887 Ry
     hartree contribution      =       1.09720720 Ry
     xc contribution           =      -6.19825741 Ry
     ewald contribution        =     -16.79597432 Ry

     total magnetization       =     0.00 Bohr mag/cell
     absolute magnetization    =     0.00 Bohr mag/cell

     convergence has been achieved in   7 iterations

     Forces acting on atoms (cartesian axes, Ry/au):

     atom    1 type  1   force =     0.00000010   -0.00000002   -0.00000001
     atom    2 type  1   force =    -0.00000010    0.00000002    0.00000001
     The non-local contrib.  to forces
     atom    1 type  1   force =     0.00000016    0.00000013    0.00000025
     atom    2 type  1   force =    -0.00000011   -0.00000014   -0.00000014
     The ionic contribution  to forces
     atom    1 type  1   force =     0.00000000    0.00000000    0.00000000
     atom    2 type  1   force =    -0.00000000   -0.00000000   -0.00000000
     The local contribution  to forces
     atom    1 type  1   force =    -0.00000005   -0.00000025   -0.00000029
     atom    2 type  1   force =    -0.00000000    0.00000018    0.00000032
     The core correction contribution to forces
     atom    1 type  1   force =    -0.00000001   -0.00000001   -0.00000001
     atom    2 type  1   force =     0.00000000    0.00000001    0.00000001
     The Hubbard contrib.    to forces
     atom    1 type  1   force =     0.00000000    0.00000000    0.00000000
     atom    2 type  1   force =     0.00000000    0.00000000    0.00000000
     The SCF correction term to forces
     atom    1 type  1   force =    -0.00000001    0.00000008    0.00000011
     atom    2 type  1   force =    -0.00000000   -0.00000006   -0.00000012

     Total force =     0.000000     Total SCF correction =     0.000000
     SCF correction compared to forces is large: reduce conv_thr to get better values


     Computing stress (Cartesian axis) and pressure

          total   stress  (Ry/bohr**3)                   (kbar)     P=      -18.93
  -0.00012869   0.00000000   0.00000000          -18.93        0.00        0.00
   0.00000000  -0.00012869   0.00000000            0.00      -18.93        0.00
   0.00000000   0.00000000  -0.00012869            0.00        0.00      -18.93

     kinetic stress (kbar)   2235.25      0.00      0.00
                                0.00   2235.25      0.00
                                0.00      0.00   2235.25

     local   stress (kbar)   -419.72      0.00      0.00
                                0.00   -419.72     -0.00
                                0.00     -0.00   -419.72

     nonloc. stress (kbar)   1970.86     -0.00     -0.00
                               -0.00   1970.86      0.00
                               -0.00      0.00   1970.86

     hartree stress (kbar)    199.08     -0.00     -0.00
                               -0.00    199.08      0.00
                               -0.00      0.00    199.08

     exc-cor stress (kbar)   -149.87      0.00      0.00
                                0.00   -149.87      0.00
                                0.00      0.00   -149.87

     corecor stress (kbar)   -807.03      0.00      0.00
                                0.00   -807.03     -0.00
                                0.00     -0.00   -807.03

     ewald   stress (kbar)  -3047.51     -0.00      0.00
                               -0.00  -3047.51     -0.00
                                0.00     -0.00  -3047.51

     hubbard stress (kbar)      0.00      0.00      0.00
                                0.00      0.00      0.00
                                0.00      0.00      0.00

     DFT-D   stress (kbar)      0.00      0.00      0.00
                                0.00      0.00      0.00
                                0.00      0.00      0.00

     XDM     stress (kbar)      0.00      0.00      0.00
                                0.00      0.00      0.00
                                0.00      0.00      0.00

     dft-nl  stress (kbar)      0.00      0.00      0.00
                                0.00      0.00      0.00
                                0.00      0.00      0.00

     TS-vdW  stress (kbar)      0.00      0.00      0.00
                                0.00      0.00      0.00
                                0.00      0.00      0.00

     MDB     stress (kbar)      0.00      0.00      0.00
                                0.00      0.00      0.00
                                0.00      0.00      0.00

     3D-RISM stress (kbar)      0.00      0.00      0.00
                                0.00      0.00      0.00
                                0.00      0.00      0.00


     Writing all to output data dir ./out/si_lda_trial.save/ :
     XML data file, charge density, pseudopotentials, collected wavefunctions

     init_run     :      1.29s CPU      1.32s WALL (       1 calls)
     electrons    :     29.14s CPU     29.47s WALL (       1 calls)
     forces       :      0.97s CPU      0.97s WALL (       1 calls)
     stress       :      5.04s CPU      5.05s WALL (       1 calls)

     Called by init_run:
     wfcinit      :      1.15s CPU      1.19s WALL (       1 calls)
     wfcinit:atom :      0.04s CPU      0.04s WALL (     686 calls)
     wfcinit:wfcr :      0.89s CPU      0.91s WALL (     686 calls)
     potinit      :      0.01s CPU      0.01s WALL (       1 calls)
     hinit0       :      0.08s CPU      0.08s WALL (       1 calls)

     Called by electrons:
     c_bands      :     25.78s CPU     26.08s WALL (       8 calls)
     sum_band     :      3.32s CPU      3.35s WALL (       8 calls)
     v_of_rho     :      0.02s CPU      0.02s WALL (       8 calls)
     v_h          :      0.00s CPU      0.00s WALL (       8 calls)
     v_xc         :      0.03s CPU      0.03s WALL (      10 calls)
     mix_rho      :      0.01s CPU      0.01s WALL (       8 calls)

     Called by c_bands:
     init_us_2    :      1.87s CPU      1.89s WALL (   13034 calls)
     cegterg      :     22.03s CPU     22.29s WALL (    5488 calls)

     Called by sum_band:
     sum_band:wei :      0.01s CPU      0.01s WALL (       8 calls)
     sum_band:loo :      3.31s CPU      3.34s WALL (       8 calls)
     sum_band:buf :      0.04s CPU      0.04s WALL (    5488 calls)
     sum_band:ini :      0.77s CPU      0.77s WALL (    5488 calls)

     Called by *egterg:
     cdiaghg      :      0.82s CPU      0.83s WALL (   19106 calls)
     cegterg:over :      1.37s CPU      1.38s WALL (   14304 calls)
     cegterg:upda :      0.72s CPU      0.73s WALL (   14304 calls)
     cegterg:last :      1.11s CPU      1.13s WALL (   10844 calls)
     h_psi        :     17.93s CPU     18.15s WALL (   20478 calls)
     g_psi        :      0.16s CPU      0.17s WALL (   14304 calls)

     Called by h_psi:
     h_psi:calbec :      2.78s CPU      2.81s WALL (   20478 calls)
     vloc_psi     :     12.59s CPU     12.75s WALL (   20478 calls)
     add_vuspsi   :      2.38s CPU      2.42s WALL (   20478 calls)

     General routines
     calbec       :      3.67s CPU      3.71s WALL (   23908 calls)
     fft          :      0.04s CPU      0.04s WALL (      48 calls)
     ffts         :      0.00s CPU      0.00s WALL (      16 calls)
     fftw         :     12.50s CPU     12.65s WALL (  281650 calls)

     Parallel routines

     PWSCF        :     36.51s CPU     36.96s WALL


   This run was terminated on:   8:23:51  16Sep2024            

=------------------------------------------------------------------------------=
   JOB DONE.
=------------------------------------------------------------------------------=
