
     Program PWSCF v.7.3.1 starts on 19Sep2024 at 16:49:49 

     This program is part of the open-source Quantum ESPRESSO suite
     for quantum simulation of materials; please cite
         "P. Giannozzi et al., J. Phys.:Condens. Matter 21 395502 (2009);
         "P. Giannozzi et al., J. Phys.:Condens. Matter 29 465901 (2017);
         "P. Giannozzi et al., J. Chem. Phys. 152 154105 (2020);
          URL http://www.quantum-espresso.org", 
     in publications or presentations arising from this work. More details at
     http://www.quantum-espresso.org/quote

     Parallel version (MPI), running on     1 processors

     MPI processes distributed on     1 nodes
     361 MiB available memory on the printing compute node when the environment starts

     Waiting for input...
     Reading input from standard input

     Current dimensions of program PWSCF are:
     Max number of different atomic species (ntypx) = 10
     Max number of k-points (npk) =  40000
     Max angular momentum in pseudopotentials (lmaxx) =  4
     Message from routine volume:
     axis vectors are left-handed

     Subspace diagonalization in iterative solution of the eigenvalue problem:
     a serial algorithm will be used


     G-vector sticks info
     --------------------
     sticks:   dense  smooth     PW     G-vecs:    dense   smooth      PW
     Sum         433     433    139                 5985     5985    1067

     Using Slab Decomposition



     bravais-lattice index     =            0
     lattice parameter (alat)  =       7.2571  a.u.
     unit-cell volume          =     270.2504 (a.u.)^3
     number of atoms/cell      =            2
     number of atomic types    =            1
     number of electrons       =         8.00 (up:   4.00, down:   4.00)
     number of Kohn-Sham states=            8
     kinetic-energy cutoff     =      30.0000  Ry
     charge density cutoff     =     120.0000  Ry
     scf convergence threshold =      4.0E-10
     mixing beta               =       0.4000
     number of iterations used =            8  plain     mixing
     Exchange-correlation= SLA  PW   NOGX NOGC
                           (   1   4   0   0   0   0   0)
     Hubbard projectors: atomic
     Hubbard parameters of DFT+U (Dudarev formulation) in eV:
     U(Si-3p) =  0.0000

     Internal variables: lda_plus_u =T, lda_plus_u_kind = 0

     celldm(1)=   7.257056  celldm(2)=   0.000000  celldm(3)=   0.000000
     celldm(4)=   0.000000  celldm(5)=   0.000000  celldm(6)=   0.000000

     crystal axes: (cart. coord. in units of alat)
               a(1) = (   0.707107   0.707107   0.000000 )  
               a(2) = (   0.707107   0.000000   0.707107 )  
               a(3) = (   0.000000   0.707107   0.707107 )  

     reciprocal axes: (cart. coord. in units 2 pi/alat)
               b(1) = (  0.707107  0.707107 -0.707107 )  
               b(2) = (  0.707107 -0.707107  0.707107 )  
               b(3) = ( -0.707107  0.707107  0.707107 )  


     PseudoPot. # 1 for Si read from file:
     ./pseudo/Si_lda.upf
     MD5 check sum: 9e2d726316af3d4752eea8ab0afbb951
     Pseudo is Norm-conserving + core correction, Zval =  4.0
     Generated using ONCVPSP code by D. R. Hamann
     Using radial grid of 1510 points,  6 beta functions with: 
                l(1) =   0
                l(2) =   0
                l(3) =   1
                l(4) =   1
                l(5) =   2
                l(6) =   2

     atomic species   valence    mass     pseudopotential
     Si                4.00    28.08550     Si( 1.00)

     Starting magnetic structure 
     atomic species   magnetization
     Si              0.000

     No symmetry found


                                    s                        frac. trans.

      isym =  1     identity                                     

 cryst.   s( 1) = (     1          0          0      )
                  (     0          1          0      )
                  (     0          0          1      )

 cart.    s( 1) = (  1.0000000  0.0000000  0.0000000 )
                  (  0.0000000  1.0000000  0.0000000 )
                  (  0.0000000  0.0000000  1.0000000 )


   Cartesian axes

     site n.     atom                  positions (alat units)
         1        Si     tau(   1) = (   0.0000000   0.0000000   0.0000000  )
         2        Si     tau(   2) = (   0.3535534   0.3535534   0.3535534  )

   Crystallographic axes

     site n.     atom                  positions (cryst. coord.)
         1        Si     tau(   1) = (  0.0000000  0.0000000  0.0000000  )
         2        Si     tau(   2) = (  0.2500000  0.2500000  0.2500000  )

     number of k points=    27  Gaussian smearing, width (Ry)=  0.0100
                       cart. coord. in units 2pi/alat
        k(    1) = (   0.0000000   0.0000000   0.0000000), wk =   0.0370370
        k(    2) = (  -0.2357023   0.2357023   0.2357023), wk =   0.0370370
        k(    3) = (   0.2357023  -0.2357023  -0.2357023), wk =   0.0370370
        k(    4) = (   0.2357023  -0.2357023   0.2357023), wk =   0.0370370
        k(    5) = (   0.0000000   0.0000000   0.4714045), wk =   0.0370370
        k(    6) = (   0.4714045  -0.4714045  -0.0000000), wk =   0.0370370
        k(    7) = (  -0.2357023   0.2357023  -0.2357023), wk =   0.0370370
        k(    8) = (  -0.4714045   0.4714045  -0.0000000), wk =   0.0370370
        k(    9) = (   0.0000000   0.0000000  -0.4714045), wk =   0.0370370
        k(   10) = (   0.2357023   0.2357023  -0.2357023), wk =   0.0370370
        k(   11) = (   0.0000000   0.4714045   0.0000000), wk =   0.0370370
        k(   12) = (   0.4714045  -0.0000000  -0.4714045), wk =   0.0370370
        k(   13) = (   0.4714045   0.0000000   0.0000000), wk =   0.0370370
        k(   14) = (   0.2357023   0.2357023   0.2357023), wk =   0.0370370
        k(   15) = (   0.7071068  -0.2357023  -0.2357023), wk =   0.0370370
        k(   16) = (  -0.0000000   0.4714045  -0.4714045), wk =   0.0370370
        k(   17) = (  -0.2357023   0.7071068  -0.2357023), wk =   0.0370370
        k(   18) = (   0.2357023   0.2357023  -0.7071068), wk =   0.0370370
        k(   19) = (  -0.2357023  -0.2357023   0.2357023), wk =   0.0370370
        k(   20) = (  -0.4714045  -0.0000000   0.4714045), wk =   0.0370370
        k(   21) = (   0.0000000  -0.4714045   0.0000000), wk =   0.0370370
        k(   22) = (  -0.0000000  -0.4714045   0.4714045), wk =   0.0370370
        k(   23) = (  -0.2357023  -0.2357023   0.7071068), wk =   0.0370370
        k(   24) = (   0.2357023  -0.7071068   0.2357023), wk =   0.0370370
        k(   25) = (  -0.4714045   0.0000000   0.0000000), wk =   0.0370370
        k(   26) = (  -0.7071068   0.2357023   0.2357023), wk =   0.0370370
        k(   27) = (  -0.2357023  -0.2357023  -0.2357023), wk =   0.0370370

                       cryst. coord.
        k(    1) = (   0.0000000   0.0000000   0.0000000), wk =   0.0370370
        k(    2) = (   0.0000000   0.0000000   0.3333333), wk =   0.0370370
        k(    3) = (   0.0000000   0.0000000  -0.3333333), wk =   0.0370370
        k(    4) = (   0.0000000   0.3333333   0.0000000), wk =   0.0370370
        k(    5) = (   0.0000000   0.3333333   0.3333333), wk =   0.0370370
        k(    6) = (   0.0000000   0.3333333  -0.3333333), wk =   0.0370370
        k(    7) = (   0.0000000  -0.3333333   0.0000000), wk =   0.0370370
        k(    8) = (   0.0000000  -0.3333333   0.3333333), wk =   0.0370370
        k(    9) = (   0.0000000  -0.3333333  -0.3333333), wk =   0.0370370
        k(   10) = (   0.3333333   0.0000000   0.0000000), wk =   0.0370370
        k(   11) = (   0.3333333   0.0000000   0.3333333), wk =   0.0370370
        k(   12) = (   0.3333333   0.0000000  -0.3333333), wk =   0.0370370
        k(   13) = (   0.3333333   0.3333333   0.0000000), wk =   0.0370370
        k(   14) = (   0.3333333   0.3333333   0.3333333), wk =   0.0370370
        k(   15) = (   0.3333333   0.3333333  -0.3333333), wk =   0.0370370
        k(   16) = (   0.3333333  -0.3333333   0.0000000), wk =   0.0370370
        k(   17) = (   0.3333333  -0.3333333   0.3333333), wk =   0.0370370
        k(   18) = (   0.3333333  -0.3333333  -0.3333333), wk =   0.0370370
        k(   19) = (  -0.3333333   0.0000000   0.0000000), wk =   0.0370370
        k(   20) = (  -0.3333333   0.0000000   0.3333333), wk =   0.0370370
        k(   21) = (  -0.3333333   0.0000000  -0.3333333), wk =   0.0370370
        k(   22) = (  -0.3333333   0.3333333   0.0000000), wk =   0.0370370
        k(   23) = (  -0.3333333   0.3333333   0.3333333), wk =   0.0370370
        k(   24) = (  -0.3333333   0.3333333  -0.3333333), wk =   0.0370370
        k(   25) = (  -0.3333333  -0.3333333   0.0000000), wk =   0.0370370
        k(   26) = (  -0.3333333  -0.3333333   0.3333333), wk =   0.0370370
        k(   27) = (  -0.3333333  -0.3333333  -0.3333333), wk =   0.0370370

     Dense  grid:     5985 G-vectors     FFT dimensions: (  25,  25,  25)

     Dynamical RAM for                 wfc:       0.09 MB

     Dynamical RAM for     wfc (w. buffer):       5.04 MB

     Dynamical RAM for             U proj.:       0.07 MB

     Dynamical RAM for  U proj. (w. buff.):       3.78 MB

     Dynamical RAM for           str. fact:       0.09 MB

     Dynamical RAM for           local pot:       0.00 MB

     Dynamical RAM for          nlocal pot:       0.41 MB

     Dynamical RAM for                qrad:       0.88 MB

     Dynamical RAM for          rho,v,vnew:       1.26 MB

     Dynamical RAM for               rhoin:       0.42 MB

     Dynamical RAM for            rho*nmix:       2.92 MB

     Dynamical RAM for           G-vectors:       0.39 MB

     Dynamical RAM for          h,s,v(r/c):       0.01 MB

     Dynamical RAM for          <psi|beta>:       0.00 MB

     Dynamical RAM for                 psi:       0.18 MB

     Dynamical RAM for                hpsi:       0.18 MB

     Dynamical RAM for      wfcinit/wfcrot:       0.18 MB

     Estimated static dynamical RAM per process >      13.17 MB

     Estimated max dynamical RAM per process >      16.47 MB
     Generating pointlists ...
     new r_m :   0.2526 (alat units)  1.8332 (a.u.) for type    1

     Initial potential from superposition of free atoms

     starting charge       7.9989, renormalised to       8.0000

     HUBBARD ENERGY =    0.0000  (Ry)

     STARTING HUBBARD OCCUPATIONS:

     =================== HUBBARD OCCUPATIONS ===================
     ------------------------ ATOM    1 ------------------------
     Tr[ns(  1)] (up, down, total) =   1.00000  1.00000  2.00000
     Atomic magnetic moment for atom   1 =   0.00000
     SPIN  1
     eigenvalues:
       0.333  0.333  0.333
     eigenvectors (columns):
       1.000  0.000  0.000
       0.000  1.000  0.000
       0.000  0.000  1.000
     occupation matrix ns (before diag.):
       0.333  0.000  0.000
       0.000  0.333  0.000
       0.000  0.000  0.333
     SPIN  2
     eigenvalues:
       0.333  0.333  0.333
     eigenvectors (columns):
       1.000  0.000  0.000
       0.000  1.000  0.000
       0.000  0.000  1.000
     occupation matrix ns (before diag.):
       0.333  0.000  0.000
       0.000  0.333  0.000
       0.000  0.000  0.333
     ------------------------ ATOM    2 ------------------------
     Tr[ns(  2)] (up, down, total) =   1.00000  1.00000  2.00000
     Atomic magnetic moment for atom   2 =   0.00000
     SPIN  1
     eigenvalues:
       0.333  0.333  0.333
     eigenvectors (columns):
       1.000  0.000  0.000
       0.000  1.000  0.000
       0.000  0.000  1.000
     occupation matrix ns (before diag.):
       0.333  0.000  0.000
       0.000  0.333  0.000
       0.000  0.000  0.333
     SPIN  2
     eigenvalues:
       0.333  0.333  0.333
     eigenvectors (columns):
       1.000  0.000  0.000
       0.000  1.000  0.000
       0.000  0.000  1.000
     occupation matrix ns (before diag.):
       0.333  0.000  0.000
       0.000  0.333  0.000
       0.000  0.000  0.333

     Number of occupied Hubbard levels =    4.0000

     Atomic wfc used for Hubbard projectors are NOT orthogonalized

     Starting wfcs are    8 randomized atomic wfcs

     total cpu time spent up to now is        0.3 secs

     Self-consistent Calculation

     iteration #  1     ecut=    30.00 Ry     beta= 0.40
     Davidson diagonalization with overlap

---- Real-time Memory Report at c_bands before calling an iterative solver
            45 MiB given to the printing process from OS
             0 MiB allocation reported by mallinfo(arena+hblkhd)
           339 MiB available memory on the node where the printing process lives
------------------
     ethr =  1.00E-02,  avg # of iterations =  3.4

     =================== HUBBARD OCCUPATIONS ===================
     ------------------------ ATOM    1 ------------------------
     Tr[ns(  1)] (up, down, total) =   2.44127  2.44126  4.88253
     Atomic magnetic moment for atom   1 =   0.00001
     SPIN  1
     eigenvalues:
       0.814  0.814  0.814
     eigenvectors (columns):
       0.179 -0.955 -0.237
      -0.644  0.069 -0.762
       0.744  0.290 -0.602
     occupation matrix ns (before diag.):
       0.814  0.000 -0.000
       0.000  0.814  0.000
      -0.000  0.000  0.814
     SPIN  2
     eigenvalues:
       0.814  0.814  0.814
     eigenvectors (columns):
      -0.343 -0.925  0.162
       0.490 -0.323 -0.810
       0.801 -0.199  0.564
     occupation matrix ns (before diag.):
       0.814 -0.000  0.000
      -0.000  0.814 -0.000
       0.000 -0.000  0.814
     ------------------------ ATOM    2 ------------------------
     Tr[ns(  2)] (up, down, total) =   2.44128  2.44131  4.88259
     Atomic magnetic moment for atom   2 =  -0.00003
     SPIN  1
     eigenvalues:
       0.814  0.814  0.814
     eigenvectors (columns):
      -0.476  0.779  0.409
      -0.111 -0.515  0.850
       0.873  0.359  0.331
     occupation matrix ns (before diag.):
       0.814  0.000  0.000
       0.000  0.814  0.000
       0.000  0.000  0.814
     SPIN  2
     eigenvalues:
       0.814  0.814  0.814
     eigenvectors (columns):
      -0.411  0.896 -0.168
       0.716  0.431  0.549
      -0.564 -0.105  0.819
     occupation matrix ns (before diag.):
       0.814  0.000 -0.000
       0.000  0.814  0.000
      -0.000  0.000  0.814

     Number of occupied Hubbard levels =    9.7651

     Threshold (ethr) on eigenvalues was too large:
     Diagonalizing with lowered threshold

     Davidson diagonalization with overlap

---- Real-time Memory Report at c_bands before calling an iterative solver
            45 MiB given to the printing process from OS
             0 MiB allocation reported by mallinfo(arena+hblkhd)
           339 MiB available memory on the node where the printing process lives
------------------
     ethr =  8.68E-04,  avg # of iterations =  1.2

     =================== HUBBARD OCCUPATIONS ===================
     ------------------------ ATOM    1 ------------------------
     Tr[ns(  1)] (up, down, total) =   2.43877  2.43876  4.87752
     Atomic magnetic moment for atom   1 =   0.00001
     SPIN  1
     eigenvalues:
       0.813  0.813  0.813
     eigenvectors (columns):
      -0.385  0.923  0.003
       0.645  0.267  0.716
      -0.660 -0.278  0.698
     occupation matrix ns (before diag.):
       0.813  0.000 -0.000
       0.000  0.813  0.000
      -0.000  0.000  0.813
     SPIN  2
     eigenvalues:
       0.813  0.813  0.813
     eigenvectors (columns):
      -0.327  0.936 -0.132
       0.603  0.099 -0.791
       0.727  0.338  0.597
     occupation matrix ns (before diag.):
       0.813  0.000 -0.000
       0.000  0.813 -0.000
      -0.000 -0.000  0.813
     ------------------------ ATOM    2 ------------------------
     Tr[ns(  2)] (up, down, total) =   2.43877  2.43878  4.87754
     Atomic magnetic moment for atom   2 =  -0.00001
     SPIN  1
     eigenvalues:
       0.813  0.813  0.813
     eigenvectors (columns):
       0.049 -0.958  0.283
      -0.150 -0.287 -0.946
       0.987  0.004 -0.158
     occupation matrix ns (before diag.):
       0.813 -0.000 -0.000
      -0.000  0.813  0.000
      -0.000  0.000  0.813
     SPIN  2
     eigenvalues:
       0.813  0.813  0.813
     eigenvectors (columns):
      -0.855  0.514  0.065
       0.448  0.671  0.591
      -0.260 -0.534  0.804
     occupation matrix ns (before diag.):
       0.813  0.000 -0.000
       0.000  0.813  0.000
      -0.000  0.000  0.813

     Number of occupied Hubbard levels =    9.7551

     HUBBARD ENERGY =    0.0000  (Ry)

     total cpu time spent up to now is        0.8 secs

     total energy              =     -17.00743742 Ry
     estimated scf accuracy    <       0.07467224 Ry

     total magnetization       =     0.00 Bohr mag/cell
     absolute magnetization    =     0.00 Bohr mag/cell

     iteration #  2     ecut=    30.00 Ry     beta= 0.40
     Davidson diagonalization with overlap

---- Real-time Memory Report at c_bands before calling an iterative solver
            48 MiB given to the printing process from OS
             0 MiB allocation reported by mallinfo(arena+hblkhd)
           334 MiB available memory on the node where the printing process lives
------------------
     ethr =  9.33E-04,  avg # of iterations =  1.7

     =================== HUBBARD OCCUPATIONS ===================
     ------------------------ ATOM    1 ------------------------
     Tr[ns(  1)] (up, down, total) =   2.45150  2.45150  4.90300
     Atomic magnetic moment for atom   1 =   0.00000
     SPIN  1
     eigenvalues:
       0.817  0.817  0.817
     eigenvectors (columns):
      -0.145 -0.045 -0.988
       0.939  0.310 -0.152
      -0.313  0.950  0.002
     occupation matrix ns (before diag.):
       0.817  0.000 -0.000
       0.000  0.817  0.000
      -0.000  0.000  0.817
     SPIN  2
     eigenvalues:
       0.817  0.817  0.817
     eigenvectors (columns):
       0.008  0.860 -0.510
      -0.859  0.267  0.437
      -0.512 -0.434 -0.741
     occupation matrix ns (before diag.):
       0.817 -0.000  0.000
      -0.000  0.817 -0.000
       0.000 -0.000  0.817
     ------------------------ ATOM    2 ------------------------
     Tr[ns(  2)] (up, down, total) =   2.45149  2.45150  4.90299
     Atomic magnetic moment for atom   2 =  -0.00001
     SPIN  1
     eigenvalues:
       0.817  0.817  0.817
     eigenvectors (columns):
       0.464 -0.634  0.619
       0.836  0.544 -0.069
       0.293 -0.549 -0.783
     occupation matrix ns (before diag.):
       0.817 -0.000 -0.000
      -0.000  0.817 -0.000
      -0.000 -0.000  0.817
     SPIN  2
     eigenvalues:
       0.817  0.817  0.817
     eigenvectors (columns):
      -0.333 -0.529  0.780
      -0.341 -0.704 -0.623
       0.879 -0.473  0.054
     occupation matrix ns (before diag.):
       0.817 -0.000  0.000
      -0.000  0.817 -0.000
       0.000 -0.000  0.817

     Number of occupied Hubbard levels =    9.8060

     HUBBARD ENERGY =    0.0000  (Ry)

     total cpu time spent up to now is        1.1 secs

     total energy              =     -17.00169937 Ry
     estimated scf accuracy    <       0.02049212 Ry

     total magnetization       =    -0.00 Bohr mag/cell
     absolute magnetization    =     0.00 Bohr mag/cell

     iteration #  3     ecut=    30.00 Ry     beta= 0.40
     Davidson diagonalization with overlap

---- Real-time Memory Report at c_bands before calling an iterative solver
            49 MiB given to the printing process from OS
             0 MiB allocation reported by mallinfo(arena+hblkhd)
           334 MiB available memory on the node where the printing process lives
------------------
     ethr =  2.56E-04,  avg # of iterations =  5.2

     =================== HUBBARD OCCUPATIONS ===================
     ------------------------ ATOM    1 ------------------------
     Tr[ns(  1)] (up, down, total) =   2.46366  2.46364  4.92730
     Atomic magnetic moment for atom   1 =   0.00002
     SPIN  1
     eigenvalues:
       0.821  0.821  0.821
     eigenvectors (columns):
       0.404 -0.092  0.910
      -0.914 -0.020  0.404
      -0.019 -0.996 -0.092
     occupation matrix ns (before diag.):
       0.821  0.000 -0.000
       0.000  0.821 -0.000
      -0.000 -0.000  0.821
     SPIN  2
     eigenvalues:
       0.821  0.821  0.821
     eigenvectors (columns):
       0.142 -0.614  0.777
       0.956 -0.119 -0.269
       0.257  0.781  0.570
     occupation matrix ns (before diag.):
       0.821 -0.000  0.000
      -0.000  0.821 -0.000
       0.000 -0.000  0.821
     ------------------------ ATOM    2 ------------------------
     Tr[ns(  2)] (up, down, total) =   2.46364  2.46365  4.92729
     Atomic magnetic moment for atom   2 =  -0.00001
     SPIN  1
     eigenvalues:
       0.821  0.821  0.821
     eigenvectors (columns):
       0.310  0.939  0.149
       0.916 -0.253 -0.312
       0.255 -0.233  0.938
     occupation matrix ns (before diag.):
       0.821 -0.000 -0.000
      -0.000  0.821 -0.000
      -0.000 -0.000  0.821
     SPIN  2
     eigenvalues:
       0.821  0.821  0.821
     eigenvectors (columns):
      -0.123  0.291 -0.949
      -0.438  0.842  0.315
       0.891  0.454  0.024
     occupation matrix ns (before diag.):
       0.821 -0.000 -0.000
      -0.000  0.821  0.000
      -0.000  0.000  0.821

     Number of occupied Hubbard levels =    9.8546

     HUBBARD ENERGY =    0.0000  (Ry)

     total cpu time spent up to now is        1.4 secs

     total energy              =     -17.00314620 Ry
     estimated scf accuracy    <       0.00033549 Ry

     total magnetization       =    -0.00 Bohr mag/cell
     absolute magnetization    =     0.00 Bohr mag/cell

     iteration #  4     ecut=    30.00 Ry     beta= 0.40
     Davidson diagonalization with overlap

---- Real-time Memory Report at c_bands before calling an iterative solver
            49 MiB given to the printing process from OS
             0 MiB allocation reported by mallinfo(arena+hblkhd)
           333 MiB available memory on the node where the printing process lives
------------------
     ethr =  4.19E-06,  avg # of iterations =  3.9

     =================== HUBBARD OCCUPATIONS ===================
     ------------------------ ATOM    1 ------------------------
     Tr[ns(  1)] (up, down, total) =   2.46125  2.46125  4.92250
     Atomic magnetic moment for atom   1 =   0.00001
     SPIN  1
     eigenvalues:
       0.820  0.820  0.820
     eigenvectors (columns):
      -0.579  0.143 -0.803
       0.809  0.221 -0.544
       0.100 -0.965 -0.244
     occupation matrix ns (before diag.):
       0.820  0.000  0.000
       0.000  0.820 -0.000
       0.000 -0.000  0.820
     SPIN  2
     eigenvalues:
       0.820  0.820  0.820
     eigenvectors (columns):
       0.343  0.924  0.170
       0.674 -0.116 -0.729
       0.654 -0.365  0.663
     occupation matrix ns (before diag.):
       0.820 -0.000  0.000
      -0.000  0.820 -0.000
       0.000 -0.000  0.820
     ------------------------ ATOM    2 ------------------------
     Tr[ns(  2)] (up, down, total) =   2.46126  2.46126  4.92252
     Atomic magnetic moment for atom   2 =  -0.00000
     SPIN  1
     eigenvalues:
       0.820  0.820  0.820
     eigenvectors (columns):
      -0.009  0.659 -0.752
      -0.830 -0.424 -0.362
      -0.558  0.621  0.551
     occupation matrix ns (before diag.):
       0.820  0.000 -0.000
       0.000  0.820 -0.000
      -0.000 -0.000  0.820
     SPIN  2
     eigenvalues:
       0.820  0.820  0.820
     eigenvectors (columns):
       0.443 -0.379  0.812
       0.448 -0.691 -0.567
      -0.776 -0.615  0.136
     occupation matrix ns (before diag.):
       0.820 -0.000  0.000
      -0.000  0.820 -0.000
       0.000 -0.000  0.820

     Number of occupied Hubbard levels =    9.8450

     HUBBARD ENERGY =    0.0000  (Ry)

     total cpu time spent up to now is        1.8 secs

     total energy              =     -17.00320841 Ry
     estimated scf accuracy    <       0.00005177 Ry

     total magnetization       =    -0.00 Bohr mag/cell
     absolute magnetization    =     0.00 Bohr mag/cell

     iteration #  5     ecut=    30.00 Ry     beta= 0.40
     Davidson diagonalization with overlap

---- Real-time Memory Report at c_bands before calling an iterative solver
            50 MiB given to the printing process from OS
             0 MiB allocation reported by mallinfo(arena+hblkhd)
           332 MiB available memory on the node where the printing process lives
------------------
     ethr =  6.47E-07,  avg # of iterations =  1.5

     =================== HUBBARD OCCUPATIONS ===================
     ------------------------ ATOM    1 ------------------------
     Tr[ns(  1)] (up, down, total) =   2.46201  2.46201  4.92401
     Atomic magnetic moment for atom   1 =   0.00000
     SPIN  1
     eigenvalues:
       0.821  0.821  0.821
     eigenvectors (columns):
      -0.524 -0.386  0.759
       0.830 -0.431  0.354
       0.190  0.816  0.546
     occupation matrix ns (before diag.):
       0.821  0.000  0.000
       0.000  0.821 -0.000
       0.000 -0.000  0.821
     SPIN  2
     eigenvalues:
       0.821  0.821  0.821
     eigenvectors (columns):
       0.210  0.975  0.072
       0.670 -0.090 -0.737
       0.712 -0.203  0.672
     occupation matrix ns (before diag.):
       0.821 -0.000  0.000
      -0.000  0.821 -0.000
       0.000 -0.000  0.821
     ------------------------ ATOM    2 ------------------------
     Tr[ns(  2)] (up, down, total) =   2.46201  2.46201  4.92402
     Atomic magnetic moment for atom   2 =  -0.00001
     SPIN  1
     eigenvalues:
       0.821  0.821  0.821
     eigenvectors (columns):
       0.176  0.481 -0.859
      -0.968 -0.074 -0.240
      -0.179  0.874  0.452
     occupation matrix ns (before diag.):
       0.821  0.000 -0.000
       0.000  0.821 -0.000
      -0.000 -0.000  0.821
     SPIN  2
     eigenvalues:
       0.821  0.821  0.821
     eigenvectors (columns):
      -0.007  0.121 -0.993
       0.131  0.984  0.119
       0.991 -0.129 -0.022
     occupation matrix ns (before diag.):
       0.821 -0.000  0.000
      -0.000  0.821 -0.000
       0.000 -0.000  0.821

     Number of occupied Hubbard levels =    9.8480

     HUBBARD ENERGY =    0.0000  (Ry)

     total cpu time spent up to now is        2.0 secs

     total energy              =     -17.00321532 Ry
     estimated scf accuracy    <       0.00000072 Ry

     total magnetization       =    -0.00 Bohr mag/cell
     absolute magnetization    =     0.00 Bohr mag/cell

     iteration #  6     ecut=    30.00 Ry     beta= 0.40
     Davidson diagonalization with overlap

---- Real-time Memory Report at c_bands before calling an iterative solver
            50 MiB given to the printing process from OS
             0 MiB allocation reported by mallinfo(arena+hblkhd)
           332 MiB available memory on the node where the printing process lives
------------------
     ethr =  9.06E-09,  avg # of iterations =  2.9

     =================== HUBBARD OCCUPATIONS ===================
     ------------------------ ATOM    1 ------------------------
     Tr[ns(  1)] (up, down, total) =   2.46198  2.46198  4.92397
     Atomic magnetic moment for atom   1 =   0.00000
     SPIN  1
     eigenvalues:
       0.821  0.821  0.821
     eigenvectors (columns):
      -0.007 -0.717 -0.697
      -0.910  0.293 -0.293
       0.415  0.632 -0.655
     occupation matrix ns (before diag.):
       0.821  0.000  0.000
       0.000  0.821  0.000
       0.000  0.000  0.821
     SPIN  2
     eigenvalues:
       0.821  0.821  0.821
     eigenvectors (columns):
      -0.709  0.696  0.111
      -0.625 -0.694  0.357
      -0.325 -0.184 -0.928
     occupation matrix ns (before diag.):
       0.821 -0.000 -0.000
      -0.000  0.821 -0.000
      -0.000 -0.000  0.821
     ------------------------ ATOM    2 ------------------------
     Tr[ns(  2)] (up, down, total) =   2.46198  2.46198  4.92396
     Atomic magnetic moment for atom   2 =  -0.00000
     SPIN  1
     eigenvalues:
       0.821  0.821  0.821
     eigenvectors (columns):
       0.229  0.192  0.954
      -0.907  0.398  0.138
       0.354  0.897 -0.265
     occupation matrix ns (before diag.):
       0.821  0.000 -0.000
       0.000  0.821  0.000
      -0.000  0.000  0.821
     SPIN  2
     eigenvalues:
       0.821  0.821  0.821
     eigenvectors (columns):
       0.616  0.770 -0.167
       0.490 -0.208  0.847
      -0.617  0.604  0.505
     occupation matrix ns (before diag.):
       0.821 -0.000  0.000
      -0.000  0.821  0.000
       0.000  0.000  0.821

     Number of occupied Hubbard levels =    9.8479

     HUBBARD ENERGY =    0.0000  (Ry)

     total cpu time spent up to now is        2.3 secs

     total energy              =     -17.00321546 Ry
     estimated scf accuracy    <       0.00000024 Ry

     total magnetization       =     0.00 Bohr mag/cell
     absolute magnetization    =     0.00 Bohr mag/cell

     iteration #  7     ecut=    30.00 Ry     beta= 0.40
     Davidson diagonalization with overlap

---- Real-time Memory Report at c_bands before calling an iterative solver
            50 MiB given to the printing process from OS
             0 MiB allocation reported by mallinfo(arena+hblkhd)
           331 MiB available memory on the node where the printing process lives
------------------
     ethr =  2.97E-09,  avg # of iterations =  1.9

     =================== HUBBARD OCCUPATIONS ===================
     ------------------------ ATOM    1 ------------------------
     Tr[ns(  1)] (up, down, total) =   2.46193  2.46193  4.92385
     Atomic magnetic moment for atom   1 =   0.00000
     SPIN  1
     eigenvalues:
       0.821  0.821  0.821
     eigenvectors (columns):
      -0.226 -0.575 -0.786
      -0.866  0.489 -0.109
       0.447  0.656 -0.609
     occupation matrix ns (before diag.):
       0.821 -0.000  0.000
      -0.000  0.821  0.000
       0.000  0.000  0.821
     SPIN  2
     eigenvalues:
       0.821  0.821  0.821
     eigenvectors (columns):
       0.906  0.163 -0.391
       0.143 -0.986 -0.082
       0.399 -0.018  0.917
     occupation matrix ns (before diag.):
       0.821 -0.000 -0.000
      -0.000  0.821 -0.000
      -0.000 -0.000  0.821
     ------------------------ ATOM    2 ------------------------
     Tr[ns(  2)] (up, down, total) =   2.46193  2.46193  4.92385
     Atomic magnetic moment for atom   2 =  -0.00000
     SPIN  1
     eigenvalues:
       0.821  0.821  0.821
     eigenvectors (columns):
      -0.304 -0.476 -0.825
       0.794 -0.605  0.056
      -0.526 -0.638  0.562
     occupation matrix ns (before diag.):
       0.821  0.000 -0.000
       0.000  0.821  0.000
      -0.000  0.000  0.821
     SPIN  2
     eigenvalues:
       0.821  0.821  0.821
     eigenvectors (columns):
       0.991 -0.090 -0.094
       0.129  0.579  0.805
      -0.018 -0.811  0.585
     occupation matrix ns (before diag.):
       0.821 -0.000 -0.000
      -0.000  0.821  0.000
      -0.000  0.000  0.821

     Number of occupied Hubbard levels =    9.8477

     HUBBARD ENERGY =    0.0000  (Ry)

     total cpu time spent up to now is        2.6 secs

     total energy              =     -17.00321550 Ry
     estimated scf accuracy    <          1.3E-09 Ry

     total magnetization       =     0.00 Bohr mag/cell
     absolute magnetization    =     0.00 Bohr mag/cell

     iteration #  8     ecut=    30.00 Ry     beta= 0.40
     Davidson diagonalization with overlap

---- Real-time Memory Report at c_bands before calling an iterative solver
            51 MiB given to the printing process from OS
             0 MiB allocation reported by mallinfo(arena+hblkhd)
           332 MiB available memory on the node where the printing process lives
------------------
     ethr =  1.65E-11,  avg # of iterations =  3.6

     =================== HUBBARD OCCUPATIONS ===================
     ------------------------ ATOM    1 ------------------------
     Tr[ns(  1)] (up, down, total) =   2.46193  2.46193  4.92386
     Atomic magnetic moment for atom   1 =   0.00000
     SPIN  1
     eigenvalues:
       0.821  0.821  0.821
     eigenvectors (columns):
       0.187  0.820 -0.541
       0.671 -0.509 -0.539
      -0.717 -0.263 -0.646
     occupation matrix ns (before diag.):
       0.821  0.000  0.000
       0.000  0.821  0.000
       0.000  0.000  0.821
     SPIN  2
     eigenvalues:
       0.821  0.821  0.821
     eigenvectors (columns):
      -0.662  0.566 -0.490
      -0.604 -0.017  0.796
      -0.443 -0.824 -0.354
     occupation matrix ns (before diag.):
       0.821 -0.000 -0.000
      -0.000  0.821 -0.000
      -0.000 -0.000  0.821
     ------------------------ ATOM    2 ------------------------
     Tr[ns(  2)] (up, down, total) =   2.46193  2.46193  4.92386
     Atomic magnetic moment for atom   2 =  -0.00000
     SPIN  1
     eigenvalues:
       0.821  0.821  0.821
     eigenvectors (columns):
      -0.220 -0.155  0.963
       0.932 -0.325  0.160
       0.288  0.933  0.216
     occupation matrix ns (before diag.):
       0.821  0.000  0.000
       0.000  0.821 -0.000
       0.000 -0.000  0.821
     SPIN  2
     eigenvalues:
       0.821  0.821  0.821
     eigenvectors (columns):
       0.804 -0.269 -0.531
       0.592  0.268  0.760
      -0.062 -0.925  0.374
     occupation matrix ns (before diag.):
       0.821 -0.000 -0.000
      -0.000  0.821  0.000
      -0.000  0.000  0.821

     Number of occupied Hubbard levels =    9.8477

     HUBBARD ENERGY =    0.0000  (Ry)

     Magnetic moment per site  (integrated on atomic sphere of radius R)
     atom   1 (R=0.253)  charge=  1.8460  magn=  0.0000
     atom   2 (R=0.253)  charge=  1.8487  magn= -0.0000

     total cpu time spent up to now is        2.9 secs

     End of self-consistent calculation

 ------ SPIN UP ------------


          k = 0.0000 0.0000 0.0000 (   749 PWs)   bands (ev):

    -5.8474   6.1422   6.1422   6.1422   8.6274   8.6274   8.6274   9.3065

     occupation numbers 
     1.0000   0.9981   0.9981   0.9981   0.0000   0.0000   0.0000   0.0000

          k =-0.2357 0.2357 0.2357 (   757 PWs)   bands (ev):

    -4.4661   0.7615   5.1332   5.1332   7.7567   9.5646   9.5646  13.7611

     occupation numbers 
     1.0000   1.0000   1.0000   1.0000   0.0000   0.0000   0.0000   0.0000

          k = 0.2357-0.2357-0.2357 (   757 PWs)   bands (ev):

    -4.4661   0.7615   5.1332   5.1332   7.7567   9.5646   9.5646  13.7611

     occupation numbers 
     1.0000   1.0000   1.0000   1.0000   0.0000   0.0000   0.0000   0.0000

          k = 0.2357-0.2357 0.2357 (   757 PWs)   bands (ev):

    -4.4661   0.7615   5.1332   5.1332   7.7567   9.5646   9.5646  13.7611

     occupation numbers 
     1.0000   1.0000   1.0000   1.0000   0.0000   0.0000   0.0000   0.0000

          k = 0.0000 0.0000 0.4714 (   749 PWs)   bands (ev):

    -3.9398   1.1103   3.6996   3.6996   6.7187   7.9728  13.3169  13.3169

     occupation numbers 
     1.0000   1.0000   1.0000   1.0000   0.0010   0.0000   0.0000   0.0000

          k = 0.4714-0.4714-0.0000 (   740 PWs)   bands (ev):

    -2.5695  -0.6527   1.6544   4.0099   7.5579  11.8233  12.5248  13.0967

     occupation numbers 
     1.0000   1.0000   1.0000   1.0000   0.0000   0.0000   0.0000   0.0000

          k =-0.2357 0.2357-0.2357 (   757 PWs)   bands (ev):

    -4.4661   0.7615   5.1332   5.1332   7.7567   9.5646   9.5646  13.7611

     occupation numbers 
     1.0000   1.0000   1.0000   1.0000   0.0000   0.0000   0.0000   0.0000

          k =-0.4714 0.4714-0.0000 (   740 PWs)   bands (ev):

    -2.5695  -0.6527   1.6544   4.0099   7.5579  11.8233  12.5248  13.0967

     occupation numbers 
     1.0000   1.0000   1.0000   1.0000   0.0000   0.0000   0.0000   0.0000

          k = 0.0000 0.0000-0.4714 (   749 PWs)   bands (ev):

    -3.9398   1.1103   3.6996   3.6996   6.7187   7.9728  13.3169  13.3169

     occupation numbers 
     1.0000   1.0000   1.0000   1.0000   0.0010   0.0000   0.0000   0.0000

          k = 0.2357 0.2357-0.2357 (   757 PWs)   bands (ev):

    -4.4661   0.7615   5.1332   5.1332   7.7567   9.5646   9.5646  13.7611

     occupation numbers 
     1.0000   1.0000   1.0000   1.0000   0.0000   0.0000   0.0000   0.0000

          k = 0.0000 0.4714 0.0000 (   749 PWs)   bands (ev):

    -3.9398   1.1103   3.6996   3.6996   6.7187   7.9728  13.3169  13.3169

     occupation numbers 
     1.0000   1.0000   1.0000   1.0000   0.0010   0.0000   0.0000   0.0000

          k = 0.4714-0.0000-0.4714 (   740 PWs)   bands (ev):

    -2.5695  -0.6527   1.6544   4.0099   7.5579  11.8233  12.5248  13.0967

     occupation numbers 
     1.0000   1.0000   1.0000   1.0000   0.0000   0.0000   0.0000   0.0000

          k = 0.4714 0.0000 0.0000 (   749 PWs)   bands (ev):

    -3.9398   1.1103   3.6996   3.6996   6.7187   7.9728  13.3169  13.3169

     occupation numbers 
     1.0000   1.0000   1.0000   1.0000   0.0010   0.0000   0.0000   0.0000

          k = 0.2357 0.2357 0.2357 (   757 PWs)   bands (ev):

    -4.4661   0.7615   5.1332   5.1332   7.7567   9.5646   9.5646  13.7611

     occupation numbers 
     1.0000   1.0000   1.0000   1.0000   0.0000   0.0000   0.0000   0.0000

          k = 0.7071-0.2357-0.2357 (   740 PWs)   bands (ev):

    -2.5695  -0.6527   1.6544   4.0099   7.5579  11.8234  12.5248  13.0967

     occupation numbers 
     1.0000   1.0000   1.0000   1.0000   0.0000   0.0000   0.0000   0.0000

          k =-0.0000 0.4714-0.4714 (   740 PWs)   bands (ev):

    -2.5695  -0.6527   1.6544   4.0099   7.5579  11.8233  12.5248  13.0967

     occupation numbers 
     1.0000   1.0000   1.0000   1.0000   0.0000   0.0000   0.0000   0.0000

          k =-0.2357 0.7071-0.2357 (   740 PWs)   bands (ev):

    -2.5695  -0.6527   1.6544   4.0099   7.5579  11.8233  12.5248  13.0967

     occupation numbers 
     1.0000   1.0000   1.0000   1.0000   0.0000   0.0000   0.0000   0.0000

          k = 0.2357 0.2357-0.7071 (   740 PWs)   bands (ev):

    -2.5695  -0.6526   1.6544   4.0099   7.5579  11.8234  12.5248  13.0967

     occupation numbers 
     1.0000   1.0000   1.0000   1.0000   0.0000   0.0000   0.0000   0.0000

          k =-0.2357-0.2357 0.2357 (   757 PWs)   bands (ev):

    -4.4661   0.7615   5.1332   5.1332   7.7567   9.5646   9.5646  13.7611

     occupation numbers 
     1.0000   1.0000   1.0000   1.0000   0.0000   0.0000   0.0000   0.0000

          k =-0.4714-0.0000 0.4714 (   740 PWs)   bands (ev):

    -2.5695  -0.6527   1.6544   4.0099   7.5579  11.8234  12.5248  13.0967

     occupation numbers 
     1.0000   1.0000   1.0000   1.0000   0.0000   0.0000   0.0000   0.0000

          k = 0.0000-0.4714 0.0000 (   749 PWs)   bands (ev):

    -3.9398   1.1103   3.6996   3.6996   6.7187   7.9728  13.3169  13.3169

     occupation numbers 
     1.0000   1.0000   1.0000   1.0000   0.0010   0.0000   0.0000   0.0000

          k =-0.0000-0.4714 0.4714 (   740 PWs)   bands (ev):

    -2.5695  -0.6527   1.6544   4.0099   7.5579  11.8233  12.5248  13.0967

     occupation numbers 
     1.0000   1.0000   1.0000   1.0000   0.0000   0.0000   0.0000   0.0000

          k =-0.2357-0.2357 0.7071 (   740 PWs)   bands (ev):

    -2.5695  -0.6526   1.6544   4.0099   7.5579  11.8234  12.5248  13.0967

     occupation numbers 
     1.0000   1.0000   1.0000   1.0000   0.0000   0.0000   0.0000   0.0000

          k = 0.2357-0.7071 0.2357 (   740 PWs)   bands (ev):

    -2.5695  -0.6527   1.6544   4.0099   7.5579  11.8234  12.5248  13.0967

     occupation numbers 
     1.0000   1.0000   1.0000   1.0000   0.0000   0.0000   0.0000   0.0000

          k =-0.4714 0.0000 0.0000 (   749 PWs)   bands (ev):

    -3.9398   1.1103   3.6996   3.6996   6.7187   7.9728  13.3169  13.3169

     occupation numbers 
     1.0000   1.0000   1.0000   1.0000   0.0010   0.0000   0.0000   0.0000

          k =-0.7071 0.2357 0.2357 (   740 PWs)   bands (ev):

    -2.5695  -0.6527   1.6544   4.0099   7.5579  11.8234  12.5248  13.0967

     occupation numbers 
     1.0000   1.0000   1.0000   1.0000   0.0000   0.0000   0.0000   0.0000

          k =-0.2357-0.2357-0.2357 (   757 PWs)   bands (ev):

    -4.4661   0.7615   5.1332   5.1332   7.7567   9.5646   9.5646  13.7611

     occupation numbers 
     1.0000   1.0000   1.0000   1.0000   0.0000   0.0000   0.0000   0.0000

 ------ SPIN DOWN ----------


          k = 0.0000 0.0000 0.0000 (   749 PWs)   bands (ev):

    -5.8474   6.1422   6.1422   6.1422   8.6274   8.6274   8.6274   9.3065

     occupation numbers 
     1.0000   0.9981   0.9981   0.9981   0.0000   0.0000   0.0000   0.0000

          k =-0.2357 0.2357 0.2357 (   757 PWs)   bands (ev):

    -4.4661   0.7615   5.1332   5.1332   7.7567   9.5646   9.5646  13.7611

     occupation numbers 
     1.0000   1.0000   1.0000   1.0000   0.0000   0.0000   0.0000   0.0000

          k = 0.2357-0.2357-0.2357 (   757 PWs)   bands (ev):

    -4.4661   0.7615   5.1332   5.1332   7.7567   9.5646   9.5646  13.7611

     occupation numbers 
     1.0000   1.0000   1.0000   1.0000   0.0000   0.0000   0.0000   0.0000

          k = 0.2357-0.2357 0.2357 (   757 PWs)   bands (ev):

    -4.4661   0.7615   5.1332   5.1332   7.7567   9.5646   9.5646  13.7611

     occupation numbers 
     1.0000   1.0000   1.0000   1.0000   0.0000   0.0000   0.0000   0.0000

          k = 0.0000 0.0000 0.4714 (   749 PWs)   bands (ev):

    -3.9398   1.1103   3.6996   3.6996   6.7187   7.9728  13.3169  13.3169

     occupation numbers 
     1.0000   1.0000   1.0000   1.0000   0.0010   0.0000   0.0000   0.0000

          k = 0.4714-0.4714-0.0000 (   740 PWs)   bands (ev):

    -2.5695  -0.6526   1.6544   4.0099   7.5579  11.8234  12.5248  13.0967

     occupation numbers 
     1.0000   1.0000   1.0000   1.0000   0.0000   0.0000   0.0000   0.0000

          k =-0.2357 0.2357-0.2357 (   757 PWs)   bands (ev):

    -4.4661   0.7615   5.1332   5.1332   7.7567   9.5646   9.5646  13.7611

     occupation numbers 
     1.0000   1.0000   1.0000   1.0000   0.0000   0.0000   0.0000   0.0000

          k =-0.4714 0.4714-0.0000 (   740 PWs)   bands (ev):

    -2.5695  -0.6526   1.6544   4.0099   7.5579  11.8234  12.5248  13.0967

     occupation numbers 
     1.0000   1.0000   1.0000   1.0000   0.0000   0.0000   0.0000   0.0000

          k = 0.0000 0.0000-0.4714 (   749 PWs)   bands (ev):

    -3.9398   1.1103   3.6996   3.6996   6.7187   7.9728  13.3169  13.3169

     occupation numbers 
     1.0000   1.0000   1.0000   1.0000   0.0010   0.0000   0.0000   0.0000

          k = 0.2357 0.2357-0.2357 (   757 PWs)   bands (ev):

    -4.4661   0.7615   5.1332   5.1332   7.7567   9.5646   9.5646  13.7611

     occupation numbers 
     1.0000   1.0000   1.0000   1.0000   0.0000   0.0000   0.0000   0.0000

          k = 0.0000 0.4714 0.0000 (   749 PWs)   bands (ev):

    -3.9398   1.1103   3.6996   3.6996   6.7187   7.9728  13.3169  13.3169

     occupation numbers 
     1.0000   1.0000   1.0000   1.0000   0.0010   0.0000   0.0000   0.0000

          k = 0.4714-0.0000-0.4714 (   740 PWs)   bands (ev):

    -2.5695  -0.6527   1.6544   4.0099   7.5579  11.8233  12.5248  13.0967

     occupation numbers 
     1.0000   1.0000   1.0000   1.0000   0.0000   0.0000   0.0000   0.0000

          k = 0.4714 0.0000 0.0000 (   749 PWs)   bands (ev):

    -3.9398   1.1103   3.6996   3.6996   6.7187   7.9728  13.3169  13.3169

     occupation numbers 
     1.0000   1.0000   1.0000   1.0000   0.0010   0.0000   0.0000   0.0000

          k = 0.2357 0.2357 0.2357 (   757 PWs)   bands (ev):

    -4.4661   0.7615   5.1332   5.1332   7.7567   9.5646   9.5646  13.7611

     occupation numbers 
     1.0000   1.0000   1.0000   1.0000   0.0000   0.0000   0.0000   0.0000

          k = 0.7071-0.2357-0.2357 (   740 PWs)   bands (ev):

    -2.5695  -0.6526   1.6544   4.0099   7.5579  11.8234  12.5248  13.0967

     occupation numbers 
     1.0000   1.0000   1.0000   1.0000   0.0000   0.0000   0.0000   0.0000

          k =-0.0000 0.4714-0.4714 (   740 PWs)   bands (ev):

    -2.5695  -0.6527   1.6544   4.0099   7.5579  11.8233  12.5248  13.0967

     occupation numbers 
     1.0000   1.0000   1.0000   1.0000   0.0000   0.0000   0.0000   0.0000

          k =-0.2357 0.7071-0.2357 (   740 PWs)   bands (ev):

    -2.5695  -0.6526   1.6544   4.0099   7.5579  11.8234  12.5248  13.0967

     occupation numbers 
     1.0000   1.0000   1.0000   1.0000   0.0000   0.0000   0.0000   0.0000

          k = 0.2357 0.2357-0.7071 (   740 PWs)   bands (ev):

    -2.5695  -0.6527   1.6544   4.0099   7.5579  11.8233  12.5248  13.0967

     occupation numbers 
     1.0000   1.0000   1.0000   1.0000   0.0000   0.0000   0.0000   0.0000

          k =-0.2357-0.2357 0.2357 (   757 PWs)   bands (ev):

    -4.4661   0.7615   5.1332   5.1332   7.7567   9.5646   9.5646  13.7611

     occupation numbers 
     1.0000   1.0000   1.0000   1.0000   0.0000   0.0000   0.0000   0.0000

          k =-0.4714-0.0000 0.4714 (   740 PWs)   bands (ev):

    -2.5695  -0.6527   1.6544   4.0099   7.5579  11.8233  12.5248  13.0967

     occupation numbers 
     1.0000   1.0000   1.0000   1.0000   0.0000   0.0000   0.0000   0.0000

          k = 0.0000-0.4714 0.0000 (   749 PWs)   bands (ev):

    -3.9398   1.1103   3.6996   3.6996   6.7187   7.9728  13.3169  13.3169

     occupation numbers 
     1.0000   1.0000   1.0000   1.0000   0.0010   0.0000   0.0000   0.0000

          k =-0.0000-0.4714 0.4714 (   740 PWs)   bands (ev):

    -2.5695  -0.6527   1.6544   4.0099   7.5579  11.8233  12.5248  13.0967

     occupation numbers 
     1.0000   1.0000   1.0000   1.0000   0.0000   0.0000   0.0000   0.0000

          k =-0.2357-0.2357 0.7071 (   740 PWs)   bands (ev):

    -2.5695  -0.6527   1.6544   4.0099   7.5579  11.8233  12.5248  13.0967

     occupation numbers 
     1.0000   1.0000   1.0000   1.0000   0.0000   0.0000   0.0000   0.0000

          k = 0.2357-0.7071 0.2357 (   740 PWs)   bands (ev):

    -2.5695  -0.6526   1.6544   4.0099   7.5579  11.8234  12.5248  13.0967

     occupation numbers 
     1.0000   1.0000   1.0000   1.0000   0.0000   0.0000   0.0000   0.0000

          k =-0.4714 0.0000 0.0000 (   749 PWs)   bands (ev):

    -3.9398   1.1103   3.6996   3.6996   6.7187   7.9728  13.3169  13.3169

     occupation numbers 
     1.0000   1.0000   1.0000   1.0000   0.0010   0.0000   0.0000   0.0000

          k =-0.7071 0.2357 0.2357 (   740 PWs)   bands (ev):

    -2.5695  -0.6526   1.6544   4.0099   7.5579  11.8234  12.5248  13.0967

     occupation numbers 
     1.0000   1.0000   1.0000   1.0000   0.0000   0.0000   0.0000   0.0000

          k =-0.2357-0.2357-0.2357 (   757 PWs)   bands (ev):

    -4.4661   0.7615   5.1332   5.1332   7.7567   9.5646   9.5646  13.7611

     occupation numbers 
     1.0000   1.0000   1.0000   1.0000   0.0000   0.0000   0.0000   0.0000

     the spin up/dw Fermi energies are     6.4203    6.4203 ev

!    total energy              =     -17.00321550 Ry
     estimated scf accuracy    <          1.0E-10 Ry
     smearing contrib. (-TS)   =      -0.00001982 Ry
     internal energy E=F+TS    =     -17.00319568 Ry

     The total energy is F=E-TS. E is the sum of the following terms:
     one-electron contribution =       4.86110301 Ry
     hartree contribution      =       1.15268400 Ry
     xc contribution           =      -6.22100837 Ry
     ewald contribution        =     -16.79597432 Ry
     Hubbard energy            =       0.00000000 Ry

     total magnetization       =     0.00 Bohr mag/cell
     absolute magnetization    =     0.00 Bohr mag/cell

     convergence has been achieved in   8 iterations

     Forces acting on atoms (cartesian axes, Ry/au):

     atom    1 type  1   force =    -0.00000003    0.00000004   -0.00000004
     atom    2 type  1   force =     0.00000003   -0.00000004    0.00000004
     The non-local contrib.  to forces
     atom    1 type  1   force =    -0.00000024    0.00000028   -0.00000029
     atom    2 type  1   force =    -0.00000024   -0.00000003   -0.00000029
     The ionic contribution  to forces
     atom    1 type  1   force =     0.00000000    0.00000000    0.00000000
     atom    2 type  1   force =    -0.00000000   -0.00000000   -0.00000000
     The local contribution  to forces
     atom    1 type  1   force =     0.00000024   -0.00000032    0.00000037
     atom    2 type  1   force =     0.00000045    0.00000005    0.00000042
     The core correction contribution to forces
     atom    1 type  1   force =     0.00000001   -0.00000002    0.00000002
     atom    2 type  1   force =     0.00000002    0.00000000    0.00000002
     The Hubbard contrib.    to forces
     atom    1 type  1   force =    -0.00000000    0.00000000    0.00000000
     atom    2 type  1   force =     0.00000000   -0.00000000    0.00000000
     The SCF correction term to forces
     atom    1 type  1   force =    -0.00000002    0.00000011   -0.00000012
     atom    2 type  1   force =    -0.00000017   -0.00000003   -0.00000009

     Total force =     0.000000     Total SCF correction =     0.000000
     SCF correction compared to forces is large: reduce conv_thr to get better values


     Computing stress (Cartesian axis) and pressure

          total   stress  (Ry/bohr**3)                   (kbar)     P=       -0.69
  -0.00000469   0.00000000   0.00000000           -0.69        0.00        0.00
   0.00000000  -0.00000469   0.00000000            0.00       -0.69        0.00
   0.00000000   0.00000000  -0.00000469            0.00        0.00       -0.69

     kinetic stress (kbar)   2278.52      0.00      0.00
                                0.00   2278.52      0.00
                                0.00      0.00   2278.52

     local   stress (kbar)   -435.64     -0.00     -0.00
                               -0.00   -435.64      0.00
                               -0.00      0.00   -435.64

     nonloc. stress (kbar)   1955.79      0.00      0.00
                                0.00   1955.79     -0.00
                                0.00     -0.00   1955.79

     hartree stress (kbar)    209.15     -0.00     -0.00
                               -0.00    209.15     -0.00
                               -0.00     -0.00    209.15

     exc-cor stress (kbar)   -153.69      0.00      0.00
                                0.00   -153.69      0.00
                                0.00      0.00   -153.69

     corecor stress (kbar)   -807.31     -0.00     -0.00
                               -0.00   -807.31      0.00
                               -0.00      0.00   -807.31

     ewald   stress (kbar)  -3047.51     -0.00      0.00
                               -0.00  -3047.51     -0.00
                                0.00     -0.00  -3047.51

     hubbard stress (kbar)     -0.00     -0.00      0.00
                               -0.00     -0.00      0.00
                                0.00      0.00     -0.00

     DFT-D   stress (kbar)      0.00      0.00      0.00
                                0.00      0.00      0.00
                                0.00      0.00      0.00

     XDM     stress (kbar)      0.00      0.00      0.00
                                0.00      0.00      0.00
                                0.00      0.00      0.00

     dft-nl  stress (kbar)      0.00      0.00      0.00
                                0.00      0.00      0.00
                                0.00      0.00      0.00

     TS-vdW  stress (kbar)      0.00      0.00      0.00
                                0.00      0.00      0.00
                                0.00      0.00      0.00

     MDB     stress (kbar)      0.00      0.00      0.00
                                0.00      0.00      0.00
                                0.00      0.00      0.00

     3D-RISM stress (kbar)      0.00      0.00      0.00
                                0.00      0.00      0.00
                                0.00      0.00      0.00


     Writing all to output data dir ./out/si_lda_trial.save/ :
     XML data file, charge density, pseudopotentials, collected wavefunctions

     init_run     :      0.25s CPU      0.25s WALL (       1 calls)
     electrons    :      2.58s CPU      2.60s WALL (       1 calls)
     forces       :      0.08s CPU      0.08s WALL (       1 calls)
     stress       :      0.35s CPU      0.35s WALL (       1 calls)

     Called by init_run:
     wfcinit      :      0.14s CPU      0.14s WALL (       1 calls)
     wfcinit:atom :      0.00s CPU      0.00s WALL (      54 calls)
     wfcinit:wfcr :      0.10s CPU      0.10s WALL (      54 calls)
     potinit      :      0.02s CPU      0.02s WALL (       1 calls)
     hinit0       :      0.09s CPU      0.09s WALL (       1 calls)

     Called by electrons:
     c_bands      :      2.27s CPU      2.29s WALL (       9 calls)
     sum_band     :      0.28s CPU      0.28s WALL (       9 calls)
     v_of_rho     :      0.02s CPU      0.02s WALL (       9 calls)
     v_h          :      0.00s CPU      0.00s WALL (       9 calls)
     v_xc         :      0.02s CPU      0.02s WALL (      11 calls)
     mix_rho      :      0.01s CPU      0.01s WALL (       9 calls)

     Called by c_bands:
     init_us_2    :      0.16s CPU      0.16s WALL (    1296 calls)
     cegterg      :      1.95s CPU      1.96s WALL (     486 calls)

     Called by sum_band:
     sum_band:wei :      0.00s CPU      0.00s WALL (       9 calls)
     sum_band:loo :      0.26s CPU      0.26s WALL (       9 calls)
     sum_band:buf :      0.00s CPU      0.00s WALL (     486 calls)
     sum_band:ini :      0.06s CPU      0.06s WALL (     486 calls)

     Called by *egterg:
     cdiaghg      :      0.08s CPU      0.08s WALL (    1797 calls)
     cegterg:over :      0.12s CPU      0.12s WALL (    1365 calls)
     cegterg:upda :      0.06s CPU      0.06s WALL (    1365 calls)
     cegterg:last :      0.10s CPU      0.10s WALL (    1012 calls)
     h_psi        :      1.62s CPU      1.63s WALL (    1905 calls)
     g_psi        :      0.01s CPU      0.01s WALL (    1365 calls)

     Called by h_psi:
     h_psi:calbec :      0.23s CPU      0.23s WALL (    1905 calls)
     vloc_psi     :      1.10s CPU      1.11s WALL (    1905 calls)
     add_vuspsi   :      0.20s CPU      0.20s WALL (    1905 calls)
     vhpsi        :      0.08s CPU      0.08s WALL (    1905 calls)

     General routines
     calbec       :      0.37s CPU      0.37s WALL (    5322 calls)
     fft          :      0.04s CPU      0.04s WALL (      53 calls)
     ffts         :      0.00s CPU      0.00s WALL (      18 calls)
     fftw         :      1.08s CPU      1.09s WALL (   24978 calls)

     Parallel routines

     Hubbard U routines
     new_ns       :      0.02s CPU      0.02s WALL (       9 calls)
     vhpsi        :      0.08s CPU      0.08s WALL (    1905 calls)
     force_hub    :      0.03s CPU      0.03s WALL (       1 calls)
                                        0.00s GPU  (       1 calls)
     stres_hub    :      0.08s CPU      0.08s WALL (       1 calls)
                                        0.00s GPU  (       1 calls)

     PWSCF        :      3.27s CPU      3.31s WALL


   This run was terminated on:  16:49:52  19Sep2024            

=------------------------------------------------------------------------------=
   JOB DONE.
=------------------------------------------------------------------------------=
