
     Program PWSCF v.7.3.1 starts on 16Sep2024 at  8:21:31 

     This program is part of the open-source Quantum ESPRESSO suite
     for quantum simulation of materials; please cite
         "P. Giannozzi et al., J. Phys.:Condens. Matter 21 395502 (2009);
         "P. Giannozzi et al., J. Phys.:Condens. Matter 29 465901 (2017);
         "P. Giannozzi et al., J. Chem. Phys. 152 154105 (2020);
          URL http://www.quantum-espresso.org", 
     in publications or presentations arising from this work. More details at
     http://www.quantum-espresso.org/quote

     Parallel version (MPI), running on     1 processors

     MPI processes distributed on     1 nodes
     3864 MiB available memory on the printing compute node when the environment starts

     Waiting for input...
     Reading input from standard input

     Current dimensions of program PWSCF are:
     Max number of different atomic species (ntypx) = 10
     Max number of k-points (npk) =  40000
     Max angular momentum in pseudopotentials (lmaxx) =  4
     Message from routine volume:
     axis vectors are left-handed

     Subspace diagonalization in iterative solution of the eigenvalue problem:
     a serial algorithm will be used


     G-vector sticks info
     --------------------
     sticks:   dense  smooth     PW     G-vecs:    dense   smooth      PW
     Sum         433     433    151                 5985     5985    1139

     Using Slab Decomposition



     bravais-lattice index     =            0
     lattice parameter (alat)  =       7.2571  a.u.
     unit-cell volume          =     270.2504 (a.u.)^3
     number of atoms/cell      =            2
     number of atomic types    =            1
     number of electrons       =         8.00 (up:   4.00, down:   4.00)
     number of Kohn-Sham states=            8
     kinetic-energy cutoff     =      30.0000  Ry
     charge density cutoff     =     120.0000  Ry
     scf convergence threshold =      4.0E-10
     mixing beta               =       0.4000
     number of iterations used =            8  plain     mixing
     Exchange-correlation= SLA  PW   NOGX NOGC
                           (   1   4   0   0   0   0   0)

     celldm(1)=   7.257056  celldm(2)=   0.000000  celldm(3)=   0.000000
     celldm(4)=   0.000000  celldm(5)=   0.000000  celldm(6)=   0.000000

     crystal axes: (cart. coord. in units of alat)
               a(1) = (   0.707107   0.707107   0.000000 )  
               a(2) = (   0.707107   0.000000   0.707107 )  
               a(3) = (   0.000000   0.707107   0.707107 )  

     reciprocal axes: (cart. coord. in units 2 pi/alat)
               b(1) = (  0.707107  0.707107 -0.707107 )  
               b(2) = (  0.707107 -0.707107  0.707107 )  
               b(3) = ( -0.707107  0.707107  0.707107 )  


     PseudoPot. # 1 for Si read from file:
     ./pseudo/Si_lda.upf
     MD5 check sum: 9e2d726316af3d4752eea8ab0afbb951
     Pseudo is Norm-conserving + core correction, Zval =  4.0
     Generated using ONCVPSP code by D. R. Hamann
     Using radial grid of 1510 points,  6 beta functions with: 
                l(1) =   0
                l(2) =   0
                l(3) =   1
                l(4) =   1
                l(5) =   2
                l(6) =   2

     atomic species   valence    mass     pseudopotential
     Si                4.00    28.08550     Si( 1.00)

     Starting magnetic structure 
     atomic species   magnetization
     Si              0.000

     No symmetry found


                                    s                        frac. trans.

      isym =  1     identity                                     

 cryst.   s( 1) = (     1          0          0      )
                  (     0          1          0      )
                  (     0          0          1      )

 cart.    s( 1) = (  1.0000000  0.0000000  0.0000000 )
                  (  0.0000000  1.0000000  0.0000000 )
                  (  0.0000000  0.0000000  1.0000000 )


   Cartesian axes

     site n.     atom                  positions (alat units)
         1        Si     tau(   1) = (   0.0000000   0.0000000   0.0000000  )
         2        Si     tau(   2) = (   0.3535534   0.3535534   0.3535534  )

   Crystallographic axes

     site n.     atom                  positions (cryst. coord.)
         1        Si     tau(   1) = (  0.0000000  0.0000000  0.0000000  )
         2        Si     tau(   2) = (  0.2500000  0.2500000  0.2500000  )

     number of k points=   125  Gaussian smearing, width (Ry)=  0.0100
                       cart. coord. in units 2pi/alat
        k(    1) = (   0.0000000   0.0000000   0.0000000), wk =   0.0080000
        k(    2) = (  -0.1414214   0.1414214   0.1414214), wk =   0.0080000
        k(    3) = (  -0.2828427   0.2828427   0.2828427), wk =   0.0080000
        k(    4) = (   0.2828427  -0.2828427  -0.2828427), wk =   0.0080000
        k(    5) = (   0.1414214  -0.1414214  -0.1414214), wk =   0.0080000
        k(    6) = (   0.1414214  -0.1414214   0.1414214), wk =   0.0080000
        k(    7) = (   0.0000000   0.0000000   0.2828427), wk =   0.0080000
        k(    8) = (  -0.1414214   0.1414214   0.4242641), wk =   0.0080000
        k(    9) = (   0.4242641  -0.4242641  -0.1414214), wk =   0.0080000
        k(   10) = (   0.2828427  -0.2828427   0.0000000), wk =   0.0080000
        k(   11) = (   0.2828427  -0.2828427   0.2828427), wk =   0.0080000
        k(   12) = (   0.1414214  -0.1414214   0.4242641), wk =   0.0080000
        k(   13) = (   0.0000000   0.0000000   0.5656854), wk =   0.0080000
        k(   14) = (   0.5656854  -0.5656854   0.0000000), wk =   0.0080000
        k(   15) = (   0.4242641  -0.4242641   0.1414214), wk =   0.0080000
        k(   16) = (  -0.2828427   0.2828427  -0.2828427), wk =   0.0080000
        k(   17) = (  -0.4242641   0.4242641  -0.1414214), wk =   0.0080000
        k(   18) = (  -0.5656854   0.5656854   0.0000000), wk =   0.0080000
        k(   19) = (   0.0000000   0.0000000  -0.5656854), wk =   0.0080000
        k(   20) = (  -0.1414214   0.1414214  -0.4242641), wk =   0.0080000
        k(   21) = (  -0.1414214   0.1414214  -0.1414214), wk =   0.0080000
        k(   22) = (  -0.2828427   0.2828427   0.0000000), wk =   0.0080000
        k(   23) = (  -0.4242641   0.4242641   0.1414214), wk =   0.0080000
        k(   24) = (   0.1414214  -0.1414214  -0.4242641), wk =   0.0080000
        k(   25) = (   0.0000000   0.0000000  -0.2828427), wk =   0.0080000
        k(   26) = (   0.1414214   0.1414214  -0.1414214), wk =   0.0080000
        k(   27) = (   0.0000000   0.2828427   0.0000000), wk =   0.0080000
        k(   28) = (  -0.1414214   0.4242641   0.1414214), wk =   0.0080000
        k(   29) = (   0.4242641  -0.1414214  -0.4242641), wk =   0.0080000
        k(   30) = (   0.2828427   0.0000000  -0.2828427), wk =   0.0080000
        k(   31) = (   0.2828427   0.0000000   0.0000000), wk =   0.0080000
        k(   32) = (   0.1414214   0.1414214   0.1414214), wk =   0.0080000
        k(   33) = (   0.0000000   0.2828427   0.2828427), wk =   0.0080000
        k(   34) = (   0.5656854  -0.2828427  -0.2828427), wk =   0.0080000
        k(   35) = (   0.4242641  -0.1414214  -0.1414214), wk =   0.0080000
        k(   36) = (   0.4242641  -0.1414214   0.1414214), wk =   0.0080000
        k(   37) = (   0.2828427   0.0000000   0.2828427), wk =   0.0080000
        k(   38) = (   0.1414214   0.1414214   0.4242641), wk =   0.0080000
        k(   39) = (   0.7071068  -0.4242641  -0.1414214), wk =   0.0080000
        k(   40) = (   0.5656854  -0.2828427   0.0000000), wk =   0.0080000
        k(   41) = (  -0.1414214   0.4242641  -0.4242641), wk =   0.0080000
        k(   42) = (  -0.2828427   0.5656854  -0.2828427), wk =   0.0080000
        k(   43) = (  -0.4242641   0.7071068  -0.1414214), wk =   0.0080000
        k(   44) = (   0.1414214   0.1414214  -0.7071068), wk =   0.0080000
        k(   45) = (  -0.0000000   0.2828427  -0.5656854), wk =   0.0080000
        k(   46) = (   0.0000000   0.2828427  -0.2828427), wk =   0.0080000
        k(   47) = (  -0.1414214   0.4242641  -0.1414214), wk =   0.0080000
        k(   48) = (  -0.2828427   0.5656854   0.0000000), wk =   0.0080000
        k(   49) = (   0.2828427  -0.0000000  -0.5656854), wk =   0.0080000
        k(   50) = (   0.1414214   0.1414214  -0.4242641), wk =   0.0080000
        k(   51) = (   0.2828427   0.2828427  -0.2828427), wk =   0.0080000
        k(   52) = (   0.1414214   0.4242641  -0.1414214), wk =   0.0080000
        k(   53) = (   0.0000000   0.5656854   0.0000000), wk =   0.0080000
        k(   54) = (   0.5656854   0.0000000  -0.5656854), wk =   0.0080000
        k(   55) = (   0.4242641   0.1414214  -0.4242641), wk =   0.0080000
        k(   56) = (   0.4242641   0.1414214  -0.1414214), wk =   0.0080000
        k(   57) = (   0.2828427   0.2828427   0.0000000), wk =   0.0080000
        k(   58) = (   0.1414214   0.4242641   0.1414214), wk =   0.0080000
        k(   59) = (   0.7071068  -0.1414214  -0.4242641), wk =   0.0080000
        k(   60) = (   0.5656854   0.0000000  -0.2828427), wk =   0.0080000
        k(   61) = (   0.5656854   0.0000000   0.0000000), wk =   0.0080000
        k(   62) = (   0.4242641   0.1414214   0.1414214), wk =   0.0080000
        k(   63) = (   0.2828427   0.2828427   0.2828427), wk =   0.0080000
        k(   64) = (   0.8485281  -0.2828427  -0.2828427), wk =   0.0080000
        k(   65) = (   0.7071068  -0.1414214  -0.1414214), wk =   0.0080000
        k(   66) = (   0.0000000   0.5656854  -0.5656854), wk =   0.0080000
        k(   67) = (  -0.1414214   0.7071068  -0.4242641), wk =   0.0080000
        k(   68) = (  -0.2828427   0.8485281  -0.2828427), wk =   0.0080000
        k(   69) = (   0.2828427   0.2828427  -0.8485281), wk =   0.0080000
        k(   70) = (   0.1414214   0.4242641  -0.7071068), wk =   0.0080000
        k(   71) = (   0.1414214   0.4242641  -0.4242641), wk =   0.0080000
        k(   72) = (   0.0000000   0.5656854  -0.2828427), wk =   0.0080000
        k(   73) = (  -0.1414214   0.7071068  -0.1414214), wk =   0.0080000
        k(   74) = (   0.4242641   0.1414214  -0.7071068), wk =   0.0080000
        k(   75) = (   0.2828427   0.2828427  -0.5656854), wk =   0.0080000
        k(   76) = (  -0.2828427  -0.2828427   0.2828427), wk =   0.0080000
        k(   77) = (  -0.4242641  -0.1414214   0.4242641), wk =   0.0080000
        k(   78) = (  -0.5656854   0.0000000   0.5656854), wk =   0.0080000
        k(   79) = (   0.0000000  -0.5656854   0.0000000), wk =   0.0080000
        k(   80) = (  -0.1414214  -0.4242641   0.1414214), wk =   0.0080000
        k(   81) = (  -0.1414214  -0.4242641   0.4242641), wk =   0.0080000
        k(   82) = (  -0.2828427  -0.2828427   0.5656854), wk =   0.0080000
        k(   83) = (  -0.4242641  -0.1414214   0.7071068), wk =   0.0080000
        k(   84) = (   0.1414214  -0.7071068   0.1414214), wk =   0.0080000
        k(   85) = (  -0.0000000  -0.5656854   0.2828427), wk =   0.0080000
        k(   86) = (   0.0000000  -0.5656854   0.5656854), wk =   0.0080000
        k(   87) = (  -0.1414214  -0.4242641   0.7071068), wk =   0.0080000
        k(   88) = (  -0.2828427  -0.2828427   0.8485281), wk =   0.0080000
        k(   89) = (   0.2828427  -0.8485281   0.2828427), wk =   0.0080000
        k(   90) = (   0.1414214  -0.7071068   0.4242641), wk =   0.0080000
        k(   91) = (  -0.5656854   0.0000000   0.0000000), wk =   0.0080000
        k(   92) = (  -0.7071068   0.1414214   0.1414214), wk =   0.0080000
        k(   93) = (  -0.8485281   0.2828427   0.2828427), wk =   0.0080000
        k(   94) = (  -0.2828427  -0.2828427  -0.2828427), wk =   0.0080000
        k(   95) = (  -0.4242641  -0.1414214  -0.1414214), wk =   0.0080000
        k(   96) = (  -0.4242641  -0.1414214   0.1414214), wk =   0.0080000
        k(   97) = (  -0.5656854  -0.0000000   0.2828427), wk =   0.0080000
        k(   98) = (  -0.7071068   0.1414214   0.4242641), wk =   0.0080000
        k(   99) = (  -0.1414214  -0.4242641  -0.1414214), wk =   0.0080000
        k(  100) = (  -0.2828427  -0.2828427   0.0000000), wk =   0.0080000
        k(  101) = (  -0.1414214  -0.1414214   0.1414214), wk =   0.0080000
        k(  102) = (  -0.2828427   0.0000000   0.2828427), wk =   0.0080000
        k(  103) = (  -0.4242641   0.1414214   0.4242641), wk =   0.0080000
        k(  104) = (   0.1414214  -0.4242641  -0.1414214), wk =   0.0080000
        k(  105) = (   0.0000000  -0.2828427   0.0000000), wk =   0.0080000
        k(  106) = (   0.0000000  -0.2828427   0.2828427), wk =   0.0080000
        k(  107) = (  -0.1414214  -0.1414214   0.4242641), wk =   0.0080000
        k(  108) = (  -0.2828427   0.0000000   0.5656854), wk =   0.0080000
        k(  109) = (   0.2828427  -0.5656854  -0.0000000), wk =   0.0080000
        k(  110) = (   0.1414214  -0.4242641   0.1414214), wk =   0.0080000
        k(  111) = (   0.1414214  -0.4242641   0.4242641), wk =   0.0080000
        k(  112) = (   0.0000000  -0.2828427   0.5656854), wk =   0.0080000
        k(  113) = (  -0.1414214  -0.1414214   0.7071068), wk =   0.0080000
        k(  114) = (   0.4242641  -0.7071068   0.1414214), wk =   0.0080000
        k(  115) = (   0.2828427  -0.5656854   0.2828427), wk =   0.0080000
        k(  116) = (  -0.4242641   0.1414214  -0.1414214), wk =   0.0080000
        k(  117) = (  -0.5656854   0.2828427  -0.0000000), wk =   0.0080000
        k(  118) = (  -0.7071068   0.4242641   0.1414214), wk =   0.0080000
        k(  119) = (  -0.1414214  -0.1414214  -0.4242641), wk =   0.0080000
        k(  120) = (  -0.2828427   0.0000000  -0.2828427), wk =   0.0080000
        k(  121) = (  -0.2828427   0.0000000   0.0000000), wk =   0.0080000
        k(  122) = (  -0.4242641   0.1414214   0.1414214), wk =   0.0080000
        k(  123) = (  -0.5656854   0.2828427   0.2828427), wk =   0.0080000
        k(  124) = (   0.0000000  -0.2828427  -0.2828427), wk =   0.0080000
        k(  125) = (  -0.1414214  -0.1414214  -0.1414214), wk =   0.0080000

                       cryst. coord.
        k(    1) = (   0.0000000   0.0000000   0.0000000), wk =   0.0080000
        k(    2) = (   0.0000000   0.0000000   0.2000000), wk =   0.0080000
        k(    3) = (   0.0000000   0.0000000   0.4000000), wk =   0.0080000
        k(    4) = (   0.0000000   0.0000000  -0.4000000), wk =   0.0080000
        k(    5) = (   0.0000000   0.0000000  -0.2000000), wk =   0.0080000
        k(    6) = (   0.0000000   0.2000000   0.0000000), wk =   0.0080000
        k(    7) = (   0.0000000   0.2000000   0.2000000), wk =   0.0080000
        k(    8) = (   0.0000000   0.2000000   0.4000000), wk =   0.0080000
        k(    9) = (   0.0000000   0.2000000  -0.4000000), wk =   0.0080000
        k(   10) = (   0.0000000   0.2000000  -0.2000000), wk =   0.0080000
        k(   11) = (   0.0000000   0.4000000   0.0000000), wk =   0.0080000
        k(   12) = (   0.0000000   0.4000000   0.2000000), wk =   0.0080000
        k(   13) = (   0.0000000   0.4000000   0.4000000), wk =   0.0080000
        k(   14) = (   0.0000000   0.4000000  -0.4000000), wk =   0.0080000
        k(   15) = (   0.0000000   0.4000000  -0.2000000), wk =   0.0080000
        k(   16) = (   0.0000000  -0.4000000   0.0000000), wk =   0.0080000
        k(   17) = (   0.0000000  -0.4000000   0.2000000), wk =   0.0080000
        k(   18) = (   0.0000000  -0.4000000   0.4000000), wk =   0.0080000
        k(   19) = (   0.0000000  -0.4000000  -0.4000000), wk =   0.0080000
        k(   20) = (   0.0000000  -0.4000000  -0.2000000), wk =   0.0080000
        k(   21) = (   0.0000000  -0.2000000   0.0000000), wk =   0.0080000
        k(   22) = (   0.0000000  -0.2000000   0.2000000), wk =   0.0080000
        k(   23) = (   0.0000000  -0.2000000   0.4000000), wk =   0.0080000
        k(   24) = (   0.0000000  -0.2000000  -0.4000000), wk =   0.0080000
        k(   25) = (   0.0000000  -0.2000000  -0.2000000), wk =   0.0080000
        k(   26) = (   0.2000000   0.0000000   0.0000000), wk =   0.0080000
        k(   27) = (   0.2000000   0.0000000   0.2000000), wk =   0.0080000
        k(   28) = (   0.2000000   0.0000000   0.4000000), wk =   0.0080000
        k(   29) = (   0.2000000   0.0000000  -0.4000000), wk =   0.0080000
        k(   30) = (   0.2000000   0.0000000  -0.2000000), wk =   0.0080000
        k(   31) = (   0.2000000   0.2000000   0.0000000), wk =   0.0080000
        k(   32) = (   0.2000000   0.2000000   0.2000000), wk =   0.0080000
        k(   33) = (   0.2000000   0.2000000   0.4000000), wk =   0.0080000
        k(   34) = (   0.2000000   0.2000000  -0.4000000), wk =   0.0080000
        k(   35) = (   0.2000000   0.2000000  -0.2000000), wk =   0.0080000
        k(   36) = (   0.2000000   0.4000000   0.0000000), wk =   0.0080000
        k(   37) = (   0.2000000   0.4000000   0.2000000), wk =   0.0080000
        k(   38) = (   0.2000000   0.4000000   0.4000000), wk =   0.0080000
        k(   39) = (   0.2000000   0.4000000  -0.4000000), wk =   0.0080000
        k(   40) = (   0.2000000   0.4000000  -0.2000000), wk =   0.0080000
        k(   41) = (   0.2000000  -0.4000000   0.0000000), wk =   0.0080000
        k(   42) = (   0.2000000  -0.4000000   0.2000000), wk =   0.0080000
        k(   43) = (   0.2000000  -0.4000000   0.4000000), wk =   0.0080000
        k(   44) = (   0.2000000  -0.4000000  -0.4000000), wk =   0.0080000
        k(   45) = (   0.2000000  -0.4000000  -0.2000000), wk =   0.0080000
        k(   46) = (   0.2000000  -0.2000000   0.0000000), wk =   0.0080000
        k(   47) = (   0.2000000  -0.2000000   0.2000000), wk =   0.0080000
        k(   48) = (   0.2000000  -0.2000000   0.4000000), wk =   0.0080000
        k(   49) = (   0.2000000  -0.2000000  -0.4000000), wk =   0.0080000
        k(   50) = (   0.2000000  -0.2000000  -0.2000000), wk =   0.0080000
        k(   51) = (   0.4000000   0.0000000   0.0000000), wk =   0.0080000
        k(   52) = (   0.4000000   0.0000000   0.2000000), wk =   0.0080000
        k(   53) = (   0.4000000   0.0000000   0.4000000), wk =   0.0080000
        k(   54) = (   0.4000000   0.0000000  -0.4000000), wk =   0.0080000
        k(   55) = (   0.4000000   0.0000000  -0.2000000), wk =   0.0080000
        k(   56) = (   0.4000000   0.2000000   0.0000000), wk =   0.0080000
        k(   57) = (   0.4000000   0.2000000   0.2000000), wk =   0.0080000
        k(   58) = (   0.4000000   0.2000000   0.4000000), wk =   0.0080000
        k(   59) = (   0.4000000   0.2000000  -0.4000000), wk =   0.0080000
        k(   60) = (   0.4000000   0.2000000  -0.2000000), wk =   0.0080000
        k(   61) = (   0.4000000   0.4000000   0.0000000), wk =   0.0080000
        k(   62) = (   0.4000000   0.4000000   0.2000000), wk =   0.0080000
        k(   63) = (   0.4000000   0.4000000   0.4000000), wk =   0.0080000
        k(   64) = (   0.4000000   0.4000000  -0.4000000), wk =   0.0080000
        k(   65) = (   0.4000000   0.4000000  -0.2000000), wk =   0.0080000
        k(   66) = (   0.4000000  -0.4000000   0.0000000), wk =   0.0080000
        k(   67) = (   0.4000000  -0.4000000   0.2000000), wk =   0.0080000
        k(   68) = (   0.4000000  -0.4000000   0.4000000), wk =   0.0080000
        k(   69) = (   0.4000000  -0.4000000  -0.4000000), wk =   0.0080000
        k(   70) = (   0.4000000  -0.4000000  -0.2000000), wk =   0.0080000
        k(   71) = (   0.4000000  -0.2000000   0.0000000), wk =   0.0080000
        k(   72) = (   0.4000000  -0.2000000   0.2000000), wk =   0.0080000
        k(   73) = (   0.4000000  -0.2000000   0.4000000), wk =   0.0080000
        k(   74) = (   0.4000000  -0.2000000  -0.4000000), wk =   0.0080000
        k(   75) = (   0.4000000  -0.2000000  -0.2000000), wk =   0.0080000
        k(   76) = (  -0.4000000   0.0000000   0.0000000), wk =   0.0080000
        k(   77) = (  -0.4000000   0.0000000   0.2000000), wk =   0.0080000
        k(   78) = (  -0.4000000   0.0000000   0.4000000), wk =   0.0080000
        k(   79) = (  -0.4000000   0.0000000  -0.4000000), wk =   0.0080000
        k(   80) = (  -0.4000000   0.0000000  -0.2000000), wk =   0.0080000
        k(   81) = (  -0.4000000   0.2000000   0.0000000), wk =   0.0080000
        k(   82) = (  -0.4000000   0.2000000   0.2000000), wk =   0.0080000
        k(   83) = (  -0.4000000   0.2000000   0.4000000), wk =   0.0080000
        k(   84) = (  -0.4000000   0.2000000  -0.4000000), wk =   0.0080000
        k(   85) = (  -0.4000000   0.2000000  -0.2000000), wk =   0.0080000
        k(   86) = (  -0.4000000   0.4000000   0.0000000), wk =   0.0080000
        k(   87) = (  -0.4000000   0.4000000   0.2000000), wk =   0.0080000
        k(   88) = (  -0.4000000   0.4000000   0.4000000), wk =   0.0080000
        k(   89) = (  -0.4000000   0.4000000  -0.4000000), wk =   0.0080000
        k(   90) = (  -0.4000000   0.4000000  -0.2000000), wk =   0.0080000
        k(   91) = (  -0.4000000  -0.4000000   0.0000000), wk =   0.0080000
        k(   92) = (  -0.4000000  -0.4000000   0.2000000), wk =   0.0080000
        k(   93) = (  -0.4000000  -0.4000000   0.4000000), wk =   0.0080000
        k(   94) = (  -0.4000000  -0.4000000  -0.4000000), wk =   0.0080000
        k(   95) = (  -0.4000000  -0.4000000  -0.2000000), wk =   0.0080000
        k(   96) = (  -0.4000000  -0.2000000   0.0000000), wk =   0.0080000
        k(   97) = (  -0.4000000  -0.2000000   0.2000000), wk =   0.0080000
        k(   98) = (  -0.4000000  -0.2000000   0.4000000), wk =   0.0080000
        k(   99) = (  -0.4000000  -0.2000000  -0.4000000), wk =   0.0080000
        k(  100) = (  -0.4000000  -0.2000000  -0.2000000), wk =   0.0080000
        k(  101) = (  -0.2000000   0.0000000   0.0000000), wk =   0.0080000
        k(  102) = (  -0.2000000   0.0000000   0.2000000), wk =   0.0080000
        k(  103) = (  -0.2000000   0.0000000   0.4000000), wk =   0.0080000
        k(  104) = (  -0.2000000   0.0000000  -0.4000000), wk =   0.0080000
        k(  105) = (  -0.2000000   0.0000000  -0.2000000), wk =   0.0080000
        k(  106) = (  -0.2000000   0.2000000   0.0000000), wk =   0.0080000
        k(  107) = (  -0.2000000   0.2000000   0.2000000), wk =   0.0080000
        k(  108) = (  -0.2000000   0.2000000   0.4000000), wk =   0.0080000
        k(  109) = (  -0.2000000   0.2000000  -0.4000000), wk =   0.0080000
        k(  110) = (  -0.2000000   0.2000000  -0.2000000), wk =   0.0080000
        k(  111) = (  -0.2000000   0.4000000   0.0000000), wk =   0.0080000
        k(  112) = (  -0.2000000   0.4000000   0.2000000), wk =   0.0080000
        k(  113) = (  -0.2000000   0.4000000   0.4000000), wk =   0.0080000
        k(  114) = (  -0.2000000   0.4000000  -0.4000000), wk =   0.0080000
        k(  115) = (  -0.2000000   0.4000000  -0.2000000), wk =   0.0080000
        k(  116) = (  -0.2000000  -0.4000000   0.0000000), wk =   0.0080000
        k(  117) = (  -0.2000000  -0.4000000   0.2000000), wk =   0.0080000
        k(  118) = (  -0.2000000  -0.4000000   0.4000000), wk =   0.0080000
        k(  119) = (  -0.2000000  -0.4000000  -0.4000000), wk =   0.0080000
        k(  120) = (  -0.2000000  -0.4000000  -0.2000000), wk =   0.0080000
        k(  121) = (  -0.2000000  -0.2000000   0.0000000), wk =   0.0080000
        k(  122) = (  -0.2000000  -0.2000000   0.2000000), wk =   0.0080000
        k(  123) = (  -0.2000000  -0.2000000   0.4000000), wk =   0.0080000
        k(  124) = (  -0.2000000  -0.2000000  -0.4000000), wk =   0.0080000
        k(  125) = (  -0.2000000  -0.2000000  -0.2000000), wk =   0.0080000

     Dense  grid:     5985 G-vectors     FFT dimensions: (  25,  25,  25)

     Dynamical RAM for                 wfc:       0.09 MB

     Dynamical RAM for     wfc (w. buffer):      22.98 MB

     Dynamical RAM for           str. fact:       0.09 MB

     Dynamical RAM for           local pot:       0.00 MB

     Dynamical RAM for          nlocal pot:       0.41 MB

     Dynamical RAM for                qrad:       0.88 MB

     Dynamical RAM for          rho,v,vnew:       1.26 MB

     Dynamical RAM for               rhoin:       0.42 MB

     Dynamical RAM for            rho*nmix:       2.92 MB

     Dynamical RAM for           G-vectors:       0.39 MB

     Dynamical RAM for          h,s,v(r/c):       0.01 MB

     Dynamical RAM for          <psi|beta>:       0.00 MB

     Dynamical RAM for                 psi:       0.18 MB

     Dynamical RAM for                hpsi:       0.18 MB

     Dynamical RAM for      wfcinit/wfcrot:       0.18 MB

     Estimated static dynamical RAM per process >      27.33 MB

     Estimated max dynamical RAM per process >      30.64 MB
     Generating pointlists ...
     new r_m :   0.2526 (alat units)  1.8332 (a.u.) for type    1

     Initial potential from superposition of free atoms

     starting charge       7.9989, renormalised to       8.0000
     Starting wfcs are    8 randomized atomic wfcs

     total cpu time spent up to now is        0.8 secs

     Self-consistent Calculation

     iteration #  1     ecut=    30.00 Ry     beta= 0.40
     Davidson diagonalization with overlap

---- Real-time Memory Report at c_bands before calling an iterative solver
            55 MiB given to the printing process from OS
             0 MiB allocation reported by mallinfo(arena+hblkhd)
          3832 MiB available memory on the node where the printing process lives
------------------
     ethr =  1.00E-02,  avg # of iterations =  4.4

     Threshold (ethr) on eigenvalues was too large:
     Diagonalizing with lowered threshold

     Davidson diagonalization with overlap

---- Real-time Memory Report at c_bands before calling an iterative solver
            56 MiB given to the printing process from OS
             0 MiB allocation reported by mallinfo(arena+hblkhd)
          3830 MiB available memory on the node where the printing process lives
------------------
     ethr =  7.07E-04,  avg # of iterations =  1.6

     total cpu time spent up to now is        3.9 secs

     total energy              =     -17.04848916 Ry
     estimated scf accuracy    <       0.06090218 Ry

     total magnetization       =     0.00 Bohr mag/cell
     absolute magnetization    =     0.00 Bohr mag/cell

     iteration #  2     ecut=    30.00 Ry     beta= 0.40
     Davidson diagonalization with overlap

---- Real-time Memory Report at c_bands before calling an iterative solver
            59 MiB given to the printing process from OS
             0 MiB allocation reported by mallinfo(arena+hblkhd)
          3825 MiB available memory on the node where the printing process lives
------------------
     ethr =  7.61E-04,  avg # of iterations =  1.0

     total cpu time spent up to now is        5.1 secs

     total energy              =     -17.04419603 Ry
     estimated scf accuracy    <       0.01636709 Ry

     total magnetization       =    -0.00 Bohr mag/cell
     absolute magnetization    =     0.00 Bohr mag/cell

     iteration #  3     ecut=    30.00 Ry     beta= 0.40
     Davidson diagonalization with overlap

---- Real-time Memory Report at c_bands before calling an iterative solver
            60 MiB given to the printing process from OS
             0 MiB allocation reported by mallinfo(arena+hblkhd)
          3824 MiB available memory on the node where the printing process lives
------------------
     ethr =  2.05E-04,  avg # of iterations =  3.4

     total cpu time spent up to now is        6.5 secs

     total energy              =     -17.04528445 Ry
     estimated scf accuracy    <       0.00027270 Ry

     total magnetization       =    -0.00 Bohr mag/cell
     absolute magnetization    =     0.00 Bohr mag/cell

     iteration #  4     ecut=    30.00 Ry     beta= 0.40
     Davidson diagonalization with overlap

---- Real-time Memory Report at c_bands before calling an iterative solver
            60 MiB given to the printing process from OS
             0 MiB allocation reported by mallinfo(arena+hblkhd)
          3822 MiB available memory on the node where the printing process lives
------------------
     ethr =  3.41E-06,  avg # of iterations =  4.7

     total cpu time spent up to now is        8.3 secs

     total energy              =     -17.04533003 Ry
     estimated scf accuracy    <       0.00001734 Ry

     total magnetization       =    -0.00 Bohr mag/cell
     absolute magnetization    =     0.00 Bohr mag/cell

     iteration #  5     ecut=    30.00 Ry     beta= 0.40
     Davidson diagonalization with overlap

---- Real-time Memory Report at c_bands before calling an iterative solver
            60 MiB given to the printing process from OS
             0 MiB allocation reported by mallinfo(arena+hblkhd)
          3822 MiB available memory on the node where the printing process lives
------------------
     ethr =  2.17E-07,  avg # of iterations =  1.6

     total cpu time spent up to now is        9.4 secs

     total energy              =     -17.04533253 Ry
     estimated scf accuracy    <       0.00000035 Ry

     total magnetization       =     0.00 Bohr mag/cell
     absolute magnetization    =     0.00 Bohr mag/cell

     iteration #  6     ecut=    30.00 Ry     beta= 0.40
     Davidson diagonalization with overlap

---- Real-time Memory Report at c_bands before calling an iterative solver
            61 MiB given to the printing process from OS
             0 MiB allocation reported by mallinfo(arena+hblkhd)
          3822 MiB available memory on the node where the printing process lives
------------------
     ethr =  4.42E-09,  avg # of iterations =  2.5

     total cpu time spent up to now is       10.8 secs

     total energy              =     -17.04533260 Ry
     estimated scf accuracy    <       0.00000009 Ry

     total magnetization       =    -0.00 Bohr mag/cell
     absolute magnetization    =     0.00 Bohr mag/cell

     iteration #  7     ecut=    30.00 Ry     beta= 0.40
     Davidson diagonalization with overlap

---- Real-time Memory Report at c_bands before calling an iterative solver
            61 MiB given to the printing process from OS
             0 MiB allocation reported by mallinfo(arena+hblkhd)
          3822 MiB available memory on the node where the printing process lives
------------------
     ethr =  1.17E-09,  avg # of iterations =  1.7

     total cpu time spent up to now is       12.0 secs

     total energy              =     -17.04533261 Ry
     estimated scf accuracy    <          1.1E-09 Ry

     total magnetization       =    -0.00 Bohr mag/cell
     absolute magnetization    =     0.00 Bohr mag/cell

     iteration #  8     ecut=    30.00 Ry     beta= 0.40
     Davidson diagonalization with overlap

---- Real-time Memory Report at c_bands before calling an iterative solver
            61 MiB given to the printing process from OS
             0 MiB allocation reported by mallinfo(arena+hblkhd)
          3816 MiB available memory on the node where the printing process lives
------------------
     ethr =  1.37E-11,  avg # of iterations =  3.6

     Magnetic moment per site  (integrated on atomic sphere of radius R)
     atom   1 (R=0.253)  charge=  1.8366  magn= -0.0000
     atom   2 (R=0.253)  charge=  1.8393  magn=  0.0000

     total cpu time spent up to now is       13.7 secs

     End of self-consistent calculation

 ------ SPIN UP ------------


          k = 0.0000 0.0000 0.0000 (   749 PWs)   bands (ev):

    -5.9123   6.0530   6.0530   6.0530   8.5797   8.5797   8.5797   9.2201

     occupation numbers 
     1.0000   0.9912   0.9912   0.9912   0.0000   0.0000   0.0000   0.0000

          k =-0.1414 0.1414 0.1414 (   751 PWs)   bands (ev):

    -5.3950   3.0223   5.4727   5.4727   8.1665   9.3787   9.3787  11.9405

     occupation numbers 
     1.0000   1.0000   1.0000   1.0000   0.0000   0.0000   0.0000   0.0000

          k =-0.2828 0.2828 0.2828 (   763 PWs)   bands (ev):

    -4.0306  -0.2432   4.9270   4.9270   7.5509   9.4289   9.4289  13.6868

     occupation numbers 
     1.0000   1.0000   1.0000   1.0000   0.0000   0.0000   0.0000   0.0000

          k = 0.2828-0.2828-0.2828 (   763 PWs)   bands (ev):

    -4.0306  -0.2432   4.9270   4.9270   7.5509   9.4289   9.4289  13.6868

     occupation numbers 
     1.0000   1.0000   1.0000   1.0000   0.0000   0.0000   0.0000   0.0000

          k = 0.1414-0.1414-0.1414 (   751 PWs)   bands (ev):

    -5.3950   3.0223   5.4727   5.4727   8.1665   9.3787   9.3787  11.9405

     occupation numbers 
     1.0000   1.0000   1.0000   1.0000   0.0000   0.0000   0.0000   0.0000

          k = 0.1414-0.1414 0.1414 (   751 PWs)   bands (ev):

    -5.3950   3.0223   5.4727   5.4727   8.1665   9.3787   9.3787  11.9405

     occupation numbers 
     1.0000   1.0000   1.0000   1.0000   0.0000   0.0000   0.0000   0.0000

          k = 0.0000 0.0000 0.2828 (   745 PWs)   bands (ev):

    -5.2171   3.4067   4.5609   4.5609   7.4358   9.8421  10.9017  10.9017

     occupation numbers 
     1.0000   1.0000   1.0000   1.0000   0.0000   0.0000   0.0000   0.0000

          k =-0.1414 0.1414 0.4243 (   752 PWs)   bands (ev):

    -4.0757   0.7269   3.4078   4.0540   7.7415  10.0550  10.9045  11.4453

     occupation numbers 
     1.0000   1.0000   1.0000   1.0000   0.0000   0.0000   0.0000   0.0000

          k = 0.4243-0.4243-0.1414 (   747 PWs)   bands (ev):

    -3.1883  -0.6692   2.5949   4.3382   8.0209  10.5643  10.8126  13.5286

     occupation numbers 
     1.0000   1.0000   1.0000   1.0000   0.0000   0.0000   0.0000   0.0000

          k = 0.2828-0.2828 0.0000 (   746 PWs)   bands (ev):

    -4.5635   1.5597   3.0278   5.2084   8.8662  10.0039  10.2805  11.6690

     occupation numbers 
     1.0000   1.0000   1.0000   1.0000   0.0000   0.0000   0.0000   0.0000

          k = 0.2828-0.2828 0.2828 (   763 PWs)   bands (ev):

    -4.0306  -0.2432   4.9270   4.9270   7.5509   9.4289   9.4289  13.6868

     occupation numbers 
     1.0000   1.0000   1.0000   1.0000   0.0000   0.0000   0.0000   0.0000

          k = 0.1414-0.1414 0.4243 (   752 PWs)   bands (ev):

    -4.0757   0.7269   3.4078   4.0540   7.7415  10.0550  10.9045  11.4454

     occupation numbers 
     1.0000   1.0000   1.0000   1.0000   0.0000   0.0000   0.0000   0.0000

          k = 0.0000 0.0000 0.5657 (   753 PWs)   bands (ev):

    -3.2017  -0.1360   3.3550   3.3550   6.5332   7.2613  14.4796  14.4796

     occupation numbers 
     1.0000   1.0000   1.0000   1.0000   0.0044   0.0000   0.0000   0.0000

          k = 0.5657-0.5657 0.0000 (   746 PWs)   bands (ev):

    -1.9945  -1.3948   1.9599   3.4743   6.9812   9.1216  14.0745  14.6386

     occupation numbers 
     1.0000   1.0000   1.0000   1.0000   0.0000   0.0000   0.0000   0.0000

          k = 0.4243-0.4243 0.1414 (   747 PWs)   bands (ev):

    -3.1883  -0.6692   2.5949   4.3382   8.0209  10.5643  10.8126  13.5286

     occupation numbers 
     1.0000   1.0000   1.0000   1.0000   0.0000   0.0000   0.0000   0.0000

          k =-0.2828 0.2828-0.2828 (   763 PWs)   bands (ev):

    -4.0306  -0.2432   4.9270   4.9270   7.5509   9.4289   9.4289  13.6868

     occupation numbers 
     1.0000   1.0000   1.0000   1.0000   0.0000   0.0000   0.0000   0.0000

          k =-0.4243 0.4243-0.1414 (   747 PWs)   bands (ev):

    -3.1883  -0.6692   2.5949   4.3382   8.0209  10.5643  10.8126  13.5286

     occupation numbers 
     1.0000   1.0000   1.0000   1.0000   0.0000   0.0000   0.0000   0.0000

          k =-0.5657 0.5657 0.0000 (   746 PWs)   bands (ev):

    -1.9945  -1.3948   1.9599   3.4743   6.9812   9.1216  14.0745  14.6386

     occupation numbers 
     1.0000   1.0000   1.0000   1.0000   0.0000   0.0000   0.0000   0.0000

          k = 0.0000 0.0000-0.5657 (   753 PWs)   bands (ev):

    -3.2017  -0.1360   3.3550   3.3550   6.5332   7.2613  14.4796  14.4796

     occupation numbers 
     1.0000   1.0000   1.0000   1.0000   0.0044   0.0000   0.0000   0.0000

          k =-0.1414 0.1414-0.4243 (   752 PWs)   bands (ev):

    -4.0757   0.7269   3.4078   4.0540   7.7415  10.0550  10.9045  11.4454

     occupation numbers 
     1.0000   1.0000   1.0000   1.0000   0.0000   0.0000   0.0000   0.0000

          k =-0.1414 0.1414-0.1414 (   751 PWs)   bands (ev):

    -5.3950   3.0223   5.4727   5.4727   8.1665   9.3787   9.3787  11.9405

     occupation numbers 
     1.0000   1.0000   1.0000   1.0000   0.0000   0.0000   0.0000   0.0000

          k =-0.2828 0.2828 0.0000 (   746 PWs)   bands (ev):

    -4.5635   1.5597   3.0278   5.2084   8.8662  10.0039  10.2805  11.6689

     occupation numbers 
     1.0000   1.0000   1.0000   1.0000   0.0000   0.0000   0.0000   0.0000

          k =-0.4243 0.4243 0.1414 (   747 PWs)   bands (ev):

    -3.1883  -0.6692   2.5949   4.3382   8.0209  10.5643  10.8126  13.5286

     occupation numbers 
     1.0000   1.0000   1.0000   1.0000   0.0000   0.0000   0.0000   0.0000

          k = 0.1414-0.1414-0.4243 (   752 PWs)   bands (ev):

    -4.0757   0.7269   3.4078   4.0540   7.7415  10.0550  10.9045  11.4453

     occupation numbers 
     1.0000   1.0000   1.0000   1.0000   0.0000   0.0000   0.0000   0.0000

          k = 0.0000 0.0000-0.2828 (   745 PWs)   bands (ev):

    -5.2171   3.4067   4.5609   4.5609   7.4358   9.8421  10.9017  10.9017

     occupation numbers 
     1.0000   1.0000   1.0000   1.0000   0.0000   0.0000   0.0000   0.0000

          k = 0.1414 0.1414-0.1414 (   751 PWs)   bands (ev):

    -5.3950   3.0223   5.4727   5.4727   8.1665   9.3787   9.3787  11.9405

     occupation numbers 
     1.0000   1.0000   1.0000   1.0000   0.0000   0.0000   0.0000   0.0000

          k = 0.0000 0.2828 0.0000 (   745 PWs)   bands (ev):

    -5.2171   3.4067   4.5609   4.5609   7.4358   9.8421  10.9017  10.9017

     occupation numbers 
     1.0000   1.0000   1.0000   1.0000   0.0000   0.0000   0.0000   0.0000

          k =-0.1414 0.4243 0.1414 (   752 PWs)   bands (ev):

    -4.0757   0.7269   3.4078   4.0540   7.7415  10.0550  10.9045  11.4453

     occupation numbers 
     1.0000   1.0000   1.0000   1.0000   0.0000   0.0000   0.0000   0.0000

          k = 0.4243-0.1414-0.4243 (   747 PWs)   bands (ev):

    -3.1883  -0.6692   2.5949   4.3382   8.0209  10.5643  10.8126  13.5286

     occupation numbers 
     1.0000   1.0000   1.0000   1.0000   0.0000   0.0000   0.0000   0.0000

          k = 0.2828 0.0000-0.2828 (   746 PWs)   bands (ev):

    -4.5635   1.5597   3.0278   5.2084   8.8662  10.0039  10.2805  11.6689

     occupation numbers 
     1.0000   1.0000   1.0000   1.0000   0.0000   0.0000   0.0000   0.0000

          k = 0.2828 0.0000 0.0000 (   745 PWs)   bands (ev):

    -5.2171   3.4067   4.5609   4.5609   7.4358   9.8421  10.9017  10.9017

     occupation numbers 
     1.0000   1.0000   1.0000   1.0000   0.0000   0.0000   0.0000   0.0000

          k = 0.1414 0.1414 0.1414 (   751 PWs)   bands (ev):

    -5.3950   3.0223   5.4727   5.4727   8.1665   9.3787   9.3787  11.9405

     occupation numbers 
     1.0000   1.0000   1.0000   1.0000   0.0000   0.0000   0.0000   0.0000

          k = 0.0000 0.2828 0.2828 (   746 PWs)   bands (ev):

    -4.5635   1.5597   3.0278   5.2084   8.8662  10.0039  10.2805  11.6689

     occupation numbers 
     1.0000   1.0000   1.0000   1.0000   0.0000   0.0000   0.0000   0.0000

          k = 0.5657-0.2828-0.2828 (   747 PWs)   bands (ev):

    -3.1883  -0.6692   2.5949   4.3382   8.0209  10.5643  10.8126  13.5286

     occupation numbers 
     1.0000   1.0000   1.0000   1.0000   0.0000   0.0000   0.0000   0.0000

          k = 0.4243-0.1414-0.1414 (   752 PWs)   bands (ev):

    -4.0757   0.7269   3.4078   4.0540   7.7415  10.0550  10.9045  11.4453

     occupation numbers 
     1.0000   1.0000   1.0000   1.0000   0.0000   0.0000   0.0000   0.0000

          k = 0.4243-0.1414 0.1414 (   752 PWs)   bands (ev):

    -4.0757   0.7269   3.4078   4.0540   7.7415  10.0550  10.9045  11.4453

     occupation numbers 
     1.0000   1.0000   1.0000   1.0000   0.0000   0.0000   0.0000   0.0000

          k = 0.2828 0.0000 0.2828 (   746 PWs)   bands (ev):

    -4.5635   1.5597   3.0278   5.2084   8.8662  10.0039  10.2805  11.6690

     occupation numbers 
     1.0000   1.0000   1.0000   1.0000   0.0000   0.0000   0.0000   0.0000

          k = 0.1414 0.1414 0.4243 (   752 PWs)   bands (ev):

    -4.0757   0.7269   3.4078   4.0540   7.7415  10.0550  10.9045  11.4454

     occupation numbers 
     1.0000   1.0000   1.0000   1.0000   0.0000   0.0000   0.0000   0.0000

          k = 0.7071-0.4243-0.1414 (   750 PWs)   bands (ev):

    -2.7604  -0.5175   2.0446   3.0414   9.3711   9.7400  10.4072  13.7509

     occupation numbers 
     1.0000   1.0000   1.0000   1.0000   0.0000   0.0000   0.0000   0.0000

          k = 0.5657-0.2828 0.0000 (   750 PWs)   bands (ev):

    -2.7604  -0.5175   2.0446   3.0414   9.3711   9.7400  10.4072  13.7509

     occupation numbers 
     1.0000   1.0000   1.0000   1.0000   0.0000   0.0000   0.0000   0.0000

          k =-0.1414 0.4243-0.4243 (   747 PWs)   bands (ev):

    -3.1883  -0.6692   2.5949   4.3382   8.0209  10.5643  10.8126  13.5286

     occupation numbers 
     1.0000   1.0000   1.0000   1.0000   0.0000   0.0000   0.0000   0.0000

          k =-0.2828 0.5657-0.2828 (   747 PWs)   bands (ev):

    -3.1883  -0.6692   2.5949   4.3382   8.0209  10.5643  10.8126  13.5286

     occupation numbers 
     1.0000   1.0000   1.0000   1.0000   0.0000   0.0000   0.0000   0.0000

          k =-0.4243 0.7071-0.1414 (   750 PWs)   bands (ev):

    -2.7604  -0.5175   2.0446   3.0414   9.3711   9.7400  10.4072  13.7509

     occupation numbers 
     1.0000   1.0000   1.0000   1.0000   0.0000   0.0000   0.0000   0.0000

          k = 0.1414 0.1414-0.7071 (   746 PWs)   bands (ev):

    -1.9945  -1.3948   1.9599   3.4743   6.9812   9.1216  14.0745  14.6386

     occupation numbers 
     1.0000   1.0000   1.0000   1.0000   0.0000   0.0000   0.0000   0.0000

          k =-0.0000 0.2828-0.5657 (   750 PWs)   bands (ev):

    -2.7604  -0.5175   2.0446   3.0414   9.3711   9.7400  10.4072  13.7509

     occupation numbers 
     1.0000   1.0000   1.0000   1.0000   0.0000   0.0000   0.0000   0.0000

          k = 0.0000 0.2828-0.2828 (   746 PWs)   bands (ev):

    -4.5635   1.5597   3.0278   5.2084   8.8662  10.0039  10.2805  11.6689

     occupation numbers 
     1.0000   1.0000   1.0000   1.0000   0.0000   0.0000   0.0000   0.0000

          k =-0.1414 0.4243-0.1414 (   752 PWs)   bands (ev):

    -4.0757   0.7269   3.4078   4.0540   7.7415  10.0550  10.9045  11.4453

     occupation numbers 
     1.0000   1.0000   1.0000   1.0000   0.0000   0.0000   0.0000   0.0000

          k =-0.2828 0.5657 0.0000 (   750 PWs)   bands (ev):

    -2.7604  -0.5175   2.0446   3.0414   9.3711   9.7400  10.4072  13.7509

     occupation numbers 
     1.0000   1.0000   1.0000   1.0000   0.0000   0.0000   0.0000   0.0000

          k = 0.2828-0.0000-0.5657 (   750 PWs)   bands (ev):

    -2.7604  -0.5175   2.0446   3.0414   9.3711   9.7400  10.4072  13.7509

     occupation numbers 
     1.0000   1.0000   1.0000   1.0000   0.0000   0.0000   0.0000   0.0000

          k = 0.1414 0.1414-0.4243 (   752 PWs)   bands (ev):

    -4.0757   0.7269   3.4078   4.0540   7.7415  10.0550  10.9045  11.4453

     occupation numbers 
     1.0000   1.0000   1.0000   1.0000   0.0000   0.0000   0.0000   0.0000

          k = 0.2828 0.2828-0.2828 (   763 PWs)   bands (ev):

    -4.0306  -0.2432   4.9270   4.9270   7.5509   9.4289   9.4289  13.6868

     occupation numbers 
     1.0000   1.0000   1.0000   1.0000   0.0000   0.0000   0.0000   0.0000

          k = 0.1414 0.4243-0.1414 (   752 PWs)   bands (ev):

    -4.0757   0.7269   3.4078   4.0540   7.7415  10.0550  10.9045  11.4453

     occupation numbers 
     1.0000   1.0000   1.0000   1.0000   0.0000   0.0000   0.0000   0.0000

          k = 0.0000 0.5657 0.0000 (   753 PWs)   bands (ev):

    -3.2017  -0.1360   3.3550   3.3550   6.5332   7.2613  14.4796  14.4796

     occupation numbers 
     1.0000   1.0000   1.0000   1.0000   0.0044   0.0000   0.0000   0.0000

          k = 0.5657 0.0000-0.5657 (   746 PWs)   bands (ev):

    -1.9945  -1.3948   1.9599   3.4743   6.9812   9.1216  14.0745  14.6386

     occupation numbers 
     1.0000   1.0000   1.0000   1.0000   0.0000   0.0000   0.0000   0.0000

          k = 0.4243 0.1414-0.4243 (   747 PWs)   bands (ev):

    -3.1883  -0.6692   2.5949   4.3382   8.0209  10.5643  10.8126  13.5286

     occupation numbers 
     1.0000   1.0000   1.0000   1.0000   0.0000   0.0000   0.0000   0.0000

          k = 0.4243 0.1414-0.1414 (   752 PWs)   bands (ev):

    -4.0757   0.7269   3.4078   4.0540   7.7415  10.0550  10.9045  11.4454

     occupation numbers 
     1.0000   1.0000   1.0000   1.0000   0.0000   0.0000   0.0000   0.0000

          k = 0.2828 0.2828 0.0000 (   746 PWs)   bands (ev):

    -4.5635   1.5597   3.0278   5.2084   8.8662  10.0039  10.2805  11.6690

     occupation numbers 
     1.0000   1.0000   1.0000   1.0000   0.0000   0.0000   0.0000   0.0000

          k = 0.1414 0.4243 0.1414 (   752 PWs)   bands (ev):

    -4.0757   0.7269   3.4078   4.0540   7.7415  10.0550  10.9045  11.4454

     occupation numbers 
     1.0000   1.0000   1.0000   1.0000   0.0000   0.0000   0.0000   0.0000

          k = 0.7071-0.1414-0.4243 (   750 PWs)   bands (ev):

    -2.7604  -0.5175   2.0446   3.0414   9.3711   9.7400  10.4072  13.7509

     occupation numbers 
     1.0000   1.0000   1.0000   1.0000   0.0000   0.0000   0.0000   0.0000

          k = 0.5657 0.0000-0.2828 (   750 PWs)   bands (ev):

    -2.7604  -0.5175   2.0446   3.0414   9.3711   9.7400  10.4072  13.7509

     occupation numbers 
     1.0000   1.0000   1.0000   1.0000   0.0000   0.0000   0.0000   0.0000

          k = 0.5657 0.0000 0.0000 (   753 PWs)   bands (ev):

    -3.2017  -0.1360   3.3550   3.3550   6.5332   7.2613  14.4796  14.4796

     occupation numbers 
     1.0000   1.0000   1.0000   1.0000   0.0044   0.0000   0.0000   0.0000

          k = 0.4243 0.1414 0.1414 (   752 PWs)   bands (ev):

    -4.0757   0.7269   3.4078   4.0540   7.7415  10.0550  10.9045  11.4454

     occupation numbers 
     1.0000   1.0000   1.0000   1.0000   0.0000   0.0000   0.0000   0.0000

          k = 0.2828 0.2828 0.2828 (   763 PWs)   bands (ev):

    -4.0306  -0.2432   4.9270   4.9270   7.5509   9.4289   9.4289  13.6868

     occupation numbers 
     1.0000   1.0000   1.0000   1.0000   0.0000   0.0000   0.0000   0.0000

          k = 0.8485-0.2828-0.2828 (   747 PWs)   bands (ev):

    -3.1883  -0.6692   2.5949   4.3382   8.0209  10.5643  10.8126  13.5286

     occupation numbers 
     1.0000   1.0000   1.0000   1.0000   0.0000   0.0000   0.0000   0.0000

          k = 0.7071-0.1414-0.1414 (   746 PWs)   bands (ev):

    -1.9945  -1.3948   1.9599   3.4743   6.9812   9.1216  14.0745  14.6387

     occupation numbers 
     1.0000   1.0000   1.0000   1.0000   0.0000   0.0000   0.0000   0.0000

          k = 0.0000 0.5657-0.5657 (   746 PWs)   bands (ev):

    -1.9945  -1.3948   1.9599   3.4743   6.9812   9.1216  14.0745  14.6386

     occupation numbers 
     1.0000   1.0000   1.0000   1.0000   0.0000   0.0000   0.0000   0.0000

          k =-0.1414 0.7071-0.4243 (   750 PWs)   bands (ev):

    -2.7604  -0.5175   2.0446   3.0414   9.3711   9.7400  10.4072  13.7509

     occupation numbers 
     1.0000   1.0000   1.0000   1.0000   0.0000   0.0000   0.0000   0.0000

          k =-0.2828 0.8485-0.2828 (   747 PWs)   bands (ev):

    -3.1883  -0.6692   2.5949   4.3382   8.0209  10.5643  10.8126  13.5286

     occupation numbers 
     1.0000   1.0000   1.0000   1.0000   0.0000   0.0000   0.0000   0.0000

          k = 0.2828 0.2828-0.8485 (   747 PWs)   bands (ev):

    -3.1883  -0.6692   2.5949   4.3382   8.0209  10.5643  10.8126  13.5286

     occupation numbers 
     1.0000   1.0000   1.0000   1.0000   0.0000   0.0000   0.0000   0.0000

          k = 0.1414 0.4243-0.7071 (   750 PWs)   bands (ev):

    -2.7604  -0.5175   2.0446   3.0414   9.3711   9.7400  10.4072  13.7509

     occupation numbers 
     1.0000   1.0000   1.0000   1.0000   0.0000   0.0000   0.0000   0.0000

          k = 0.1414 0.4243-0.4243 (   747 PWs)   bands (ev):

    -3.1883  -0.6692   2.5949   4.3382   8.0209  10.5643  10.8126  13.5286

     occupation numbers 
     1.0000   1.0000   1.0000   1.0000   0.0000   0.0000   0.0000   0.0000

          k = 0.0000 0.5657-0.2828 (   750 PWs)   bands (ev):

    -2.7604  -0.5175   2.0446   3.0414   9.3711   9.7400  10.4072  13.7509

     occupation numbers 
     1.0000   1.0000   1.0000   1.0000   0.0000   0.0000   0.0000   0.0000

          k =-0.1414 0.7071-0.1414 (   746 PWs)   bands (ev):

    -1.9945  -1.3948   1.9599   3.4743   6.9812   9.1216  14.0745  14.6386

     occupation numbers 
     1.0000   1.0000   1.0000   1.0000   0.0000   0.0000   0.0000   0.0000

          k = 0.4243 0.1414-0.7071 (   750 PWs)   bands (ev):

    -2.7604  -0.5175   2.0446   3.0414   9.3711   9.7400  10.4072  13.7509

     occupation numbers 
     1.0000   1.0000   1.0000   1.0000   0.0000   0.0000   0.0000   0.0000

          k = 0.2828 0.2828-0.5657 (   747 PWs)   bands (ev):

    -3.1883  -0.6692   2.5949   4.3382   8.0209  10.5643  10.8126  13.5286

     occupation numbers 
     1.0000   1.0000   1.0000   1.0000   0.0000   0.0000   0.0000   0.0000

          k =-0.2828-0.2828 0.2828 (   763 PWs)   bands (ev):

    -4.0306  -0.2432   4.9270   4.9270   7.5509   9.4289   9.4289  13.6868

     occupation numbers 
     1.0000   1.0000   1.0000   1.0000   0.0000   0.0000   0.0000   0.0000

          k =-0.4243-0.1414 0.4243 (   747 PWs)   bands (ev):

    -3.1883  -0.6692   2.5949   4.3382   8.0209  10.5643  10.8126  13.5286

     occupation numbers 
     1.0000   1.0000   1.0000   1.0000   0.0000   0.0000   0.0000   0.0000

          k =-0.5657 0.0000 0.5657 (   746 PWs)   bands (ev):

    -1.9945  -1.3948   1.9599   3.4743   6.9812   9.1216  14.0745  14.6386

     occupation numbers 
     1.0000   1.0000   1.0000   1.0000   0.0000   0.0000   0.0000   0.0000

          k = 0.0000-0.5657 0.0000 (   753 PWs)   bands (ev):

    -3.2017  -0.1360   3.3550   3.3550   6.5332   7.2613  14.4796  14.4796

     occupation numbers 
     1.0000   1.0000   1.0000   1.0000   0.0044   0.0000   0.0000   0.0000

          k =-0.1414-0.4243 0.1414 (   752 PWs)   bands (ev):

    -4.0757   0.7269   3.4078   4.0540   7.7415  10.0550  10.9045  11.4454

     occupation numbers 
     1.0000   1.0000   1.0000   1.0000   0.0000   0.0000   0.0000   0.0000

          k =-0.1414-0.4243 0.4243 (   747 PWs)   bands (ev):

    -3.1883  -0.6692   2.5949   4.3382   8.0209  10.5643  10.8126  13.5286

     occupation numbers 
     1.0000   1.0000   1.0000   1.0000   0.0000   0.0000   0.0000   0.0000

          k =-0.2828-0.2828 0.5657 (   747 PWs)   bands (ev):

    -3.1883  -0.6692   2.5949   4.3382   8.0209  10.5643  10.8126  13.5286

     occupation numbers 
     1.0000   1.0000   1.0000   1.0000   0.0000   0.0000   0.0000   0.0000

          k =-0.4243-0.1414 0.7071 (   750 PWs)   bands (ev):

    -2.7604  -0.5175   2.0446   3.0414   9.3711   9.7400  10.4072  13.7509

     occupation numbers 
     1.0000   1.0000   1.0000   1.0000   0.0000   0.0000   0.0000   0.0000

          k = 0.1414-0.7071 0.1414 (   746 PWs)   bands (ev):

    -1.9945  -1.3948   1.9599   3.4743   6.9812   9.1216  14.0745  14.6386

     occupation numbers 
     1.0000   1.0000   1.0000   1.0000   0.0000   0.0000   0.0000   0.0000

          k =-0.0000-0.5657 0.2828 (   750 PWs)   bands (ev):

    -2.7604  -0.5175   2.0446   3.0414   9.3711   9.7400  10.4072  13.7509

     occupation numbers 
     1.0000   1.0000   1.0000   1.0000   0.0000   0.0000   0.0000   0.0000

          k = 0.0000-0.5657 0.5657 (   746 PWs)   bands (ev):

    -1.9945  -1.3948   1.9599   3.4743   6.9812   9.1216  14.0745  14.6386

     occupation numbers 
     1.0000   1.0000   1.0000   1.0000   0.0000   0.0000   0.0000   0.0000

          k =-0.1414-0.4243 0.7071 (   750 PWs)   bands (ev):

    -2.7604  -0.5175   2.0446   3.0414   9.3711   9.7400  10.4072  13.7509

     occupation numbers 
     1.0000   1.0000   1.0000   1.0000   0.0000   0.0000   0.0000   0.0000

          k =-0.2828-0.2828 0.8485 (   747 PWs)   bands (ev):

    -3.1883  -0.6692   2.5949   4.3382   8.0209  10.5643  10.8126  13.5286

     occupation numbers 
     1.0000   1.0000   1.0000   1.0000   0.0000   0.0000   0.0000   0.0000

          k = 0.2828-0.8485 0.2828 (   747 PWs)   bands (ev):

    -3.1883  -0.6692   2.5949   4.3382   8.0209  10.5643  10.8126  13.5286

     occupation numbers 
     1.0000   1.0000   1.0000   1.0000   0.0000   0.0000   0.0000   0.0000

          k = 0.1414-0.7071 0.4243 (   750 PWs)   bands (ev):

    -2.7604  -0.5175   2.0446   3.0414   9.3711   9.7400  10.4072  13.7509

     occupation numbers 
     1.0000   1.0000   1.0000   1.0000   0.0000   0.0000   0.0000   0.0000

          k =-0.5657 0.0000 0.0000 (   753 PWs)   bands (ev):

    -3.2017  -0.1360   3.3550   3.3550   6.5332   7.2613  14.4796  14.4796

     occupation numbers 
     1.0000   1.0000   1.0000   1.0000   0.0044   0.0000   0.0000   0.0000

          k =-0.7071 0.1414 0.1414 (   746 PWs)   bands (ev):

    -1.9945  -1.3948   1.9599   3.4743   6.9812   9.1216  14.0745  14.6386

     occupation numbers 
     1.0000   1.0000   1.0000   1.0000   0.0000   0.0000   0.0000   0.0000

          k =-0.8485 0.2828 0.2828 (   747 PWs)   bands (ev):

    -3.1883  -0.6692   2.5949   4.3382   8.0209  10.5643  10.8126  13.5286

     occupation numbers 
     1.0000   1.0000   1.0000   1.0000   0.0000   0.0000   0.0000   0.0000

          k =-0.2828-0.2828-0.2828 (   763 PWs)   bands (ev):

    -4.0306  -0.2432   4.9270   4.9270   7.5509   9.4289   9.4289  13.6868

     occupation numbers 
     1.0000   1.0000   1.0000   1.0000   0.0000   0.0000   0.0000   0.0000

          k =-0.4243-0.1414-0.1414 (   752 PWs)   bands (ev):

    -4.0757   0.7269   3.4078   4.0540   7.7415  10.0550  10.9045  11.4454

     occupation numbers 
     1.0000   1.0000   1.0000   1.0000   0.0000   0.0000   0.0000   0.0000

          k =-0.4243-0.1414 0.1414 (   752 PWs)   bands (ev):

    -4.0757   0.7269   3.4078   4.0540   7.7415  10.0550  10.9045  11.4453

     occupation numbers 
     1.0000   1.0000   1.0000   1.0000   0.0000   0.0000   0.0000   0.0000

          k =-0.5657-0.0000 0.2828 (   750 PWs)   bands (ev):

    -2.7604  -0.5175   2.0446   3.0414   9.3711   9.7400  10.4072  13.7509

     occupation numbers 
     1.0000   1.0000   1.0000   1.0000   0.0000   0.0000   0.0000   0.0000

          k =-0.7071 0.1414 0.4243 (   750 PWs)   bands (ev):

    -2.7604  -0.5175   2.0446   3.0414   9.3711   9.7400  10.4072  13.7509

     occupation numbers 
     1.0000   1.0000   1.0000   1.0000   0.0000   0.0000   0.0000   0.0000

          k =-0.1414-0.4243-0.1414 (   752 PWs)   bands (ev):

    -4.0757   0.7269   3.4078   4.0540   7.7415  10.0550  10.9045  11.4454

     occupation numbers 
     1.0000   1.0000   1.0000   1.0000   0.0000   0.0000   0.0000   0.0000

          k =-0.2828-0.2828 0.0000 (   746 PWs)   bands (ev):

    -4.5635   1.5597   3.0278   5.2084   8.8662  10.0039  10.2805  11.6689

     occupation numbers 
     1.0000   1.0000   1.0000   1.0000   0.0000   0.0000   0.0000   0.0000

          k =-0.1414-0.1414 0.1414 (   751 PWs)   bands (ev):

    -5.3950   3.0223   5.4727   5.4727   8.1665   9.3787   9.3787  11.9405

     occupation numbers 
     1.0000   1.0000   1.0000   1.0000   0.0000   0.0000   0.0000   0.0000

          k =-0.2828 0.0000 0.2828 (   746 PWs)   bands (ev):

    -4.5635   1.5597   3.0278   5.2084   8.8662  10.0039  10.2805  11.6689

     occupation numbers 
     1.0000   1.0000   1.0000   1.0000   0.0000   0.0000   0.0000   0.0000

          k =-0.4243 0.1414 0.4243 (   747 PWs)   bands (ev):

    -3.1883  -0.6692   2.5949   4.3382   8.0209  10.5643  10.8126  13.5286

     occupation numbers 
     1.0000   1.0000   1.0000   1.0000   0.0000   0.0000   0.0000   0.0000

          k = 0.1414-0.4243-0.1414 (   752 PWs)   bands (ev):

    -4.0757   0.7269   3.4078   4.0540   7.7415  10.0550  10.9045  11.4453

     occupation numbers 
     1.0000   1.0000   1.0000   1.0000   0.0000   0.0000   0.0000   0.0000

          k = 0.0000-0.2828 0.0000 (   745 PWs)   bands (ev):

    -5.2171   3.4067   4.5609   4.5609   7.4358   9.8421  10.9017  10.9017

     occupation numbers 
     1.0000   1.0000   1.0000   1.0000   0.0000   0.0000   0.0000   0.0000

          k = 0.0000-0.2828 0.2828 (   746 PWs)   bands (ev):

    -4.5635   1.5597   3.0278   5.2084   8.8662  10.0039  10.2805  11.6689

     occupation numbers 
     1.0000   1.0000   1.0000   1.0000   0.0000   0.0000   0.0000   0.0000

          k =-0.1414-0.1414 0.4243 (   752 PWs)   bands (ev):

    -4.0757   0.7269   3.4078   4.0540   7.7415  10.0550  10.9045  11.4453

     occupation numbers 
     1.0000   1.0000   1.0000   1.0000   0.0000   0.0000   0.0000   0.0000

          k =-0.2828 0.0000 0.5657 (   750 PWs)   bands (ev):

    -2.7604  -0.5175   2.0446   3.0414   9.3711   9.7400  10.4072  13.7509

     occupation numbers 
     1.0000   1.0000   1.0000   1.0000   0.0000   0.0000   0.0000   0.0000

          k = 0.2828-0.5657-0.0000 (   750 PWs)   bands (ev):

    -2.7604  -0.5175   2.0446   3.0414   9.3711   9.7400  10.4072  13.7509

     occupation numbers 
     1.0000   1.0000   1.0000   1.0000   0.0000   0.0000   0.0000   0.0000

          k = 0.1414-0.4243 0.1414 (   752 PWs)   bands (ev):

    -4.0757   0.7269   3.4078   4.0540   7.7415  10.0550  10.9045  11.4453

     occupation numbers 
     1.0000   1.0000   1.0000   1.0000   0.0000   0.0000   0.0000   0.0000

          k = 0.1414-0.4243 0.4243 (   747 PWs)   bands (ev):

    -3.1883  -0.6692   2.5949   4.3382   8.0209  10.5643  10.8126  13.5286

     occupation numbers 
     1.0000   1.0000   1.0000   1.0000   0.0000   0.0000   0.0000   0.0000

          k = 0.0000-0.2828 0.5657 (   750 PWs)   bands (ev):

    -2.7604  -0.5175   2.0446   3.0414   9.3711   9.7400  10.4072  13.7509

     occupation numbers 
     1.0000   1.0000   1.0000   1.0000   0.0000   0.0000   0.0000   0.0000

          k =-0.1414-0.1414 0.7071 (   746 PWs)   bands (ev):

    -1.9945  -1.3948   1.9599   3.4743   6.9812   9.1216  14.0745  14.6386

     occupation numbers 
     1.0000   1.0000   1.0000   1.0000   0.0000   0.0000   0.0000   0.0000

          k = 0.4243-0.7071 0.1414 (   750 PWs)   bands (ev):

    -2.7604  -0.5175   2.0446   3.0414   9.3711   9.7400  10.4072  13.7509

     occupation numbers 
     1.0000   1.0000   1.0000   1.0000   0.0000   0.0000   0.0000   0.0000

          k = 0.2828-0.5657 0.2828 (   747 PWs)   bands (ev):

    -3.1883  -0.6692   2.5949   4.3382   8.0209  10.5643  10.8126  13.5286

     occupation numbers 
     1.0000   1.0000   1.0000   1.0000   0.0000   0.0000   0.0000   0.0000

          k =-0.4243 0.1414-0.1414 (   752 PWs)   bands (ev):

    -4.0757   0.7269   3.4078   4.0540   7.7415  10.0550  10.9045  11.4453

     occupation numbers 
     1.0000   1.0000   1.0000   1.0000   0.0000   0.0000   0.0000   0.0000

          k =-0.5657 0.2828-0.0000 (   750 PWs)   bands (ev):

    -2.7604  -0.5175   2.0446   3.0414   9.3711   9.7400  10.4072  13.7509

     occupation numbers 
     1.0000   1.0000   1.0000   1.0000   0.0000   0.0000   0.0000   0.0000

          k =-0.7071 0.4243 0.1414 (   750 PWs)   bands (ev):

    -2.7604  -0.5175   2.0446   3.0414   9.3711   9.7400  10.4072  13.7509

     occupation numbers 
     1.0000   1.0000   1.0000   1.0000   0.0000   0.0000   0.0000   0.0000

          k =-0.1414-0.1414-0.4243 (   752 PWs)   bands (ev):

    -4.0757   0.7269   3.4078   4.0540   7.7415  10.0550  10.9045  11.4454

     occupation numbers 
     1.0000   1.0000   1.0000   1.0000   0.0000   0.0000   0.0000   0.0000

          k =-0.2828 0.0000-0.2828 (   746 PWs)   bands (ev):

    -4.5635   1.5597   3.0278   5.2084   8.8662  10.0039  10.2805  11.6689

     occupation numbers 
     1.0000   1.0000   1.0000   1.0000   0.0000   0.0000   0.0000   0.0000

          k =-0.2828 0.0000 0.0000 (   745 PWs)   bands (ev):

    -5.2171   3.4067   4.5609   4.5609   7.4358   9.8421  10.9017  10.9017

     occupation numbers 
     1.0000   1.0000   1.0000   1.0000   0.0000   0.0000   0.0000   0.0000

          k =-0.4243 0.1414 0.1414 (   752 PWs)   bands (ev):

    -4.0757   0.7269   3.4078   4.0540   7.7415  10.0550  10.9045  11.4453

     occupation numbers 
     1.0000   1.0000   1.0000   1.0000   0.0000   0.0000   0.0000   0.0000

          k =-0.5657 0.2828 0.2828 (   747 PWs)   bands (ev):

    -3.1883  -0.6692   2.5949   4.3382   8.0209  10.5643  10.8126  13.5286

     occupation numbers 
     1.0000   1.0000   1.0000   1.0000   0.0000   0.0000   0.0000   0.0000

          k = 0.0000-0.2828-0.2828 (   746 PWs)   bands (ev):

    -4.5635   1.5597   3.0278   5.2084   8.8662  10.0039  10.2805  11.6689

     occupation numbers 
     1.0000   1.0000   1.0000   1.0000   0.0000   0.0000   0.0000   0.0000

          k =-0.1414-0.1414-0.1414 (   751 PWs)   bands (ev):

    -5.3950   3.0223   5.4727   5.4727   8.1665   9.3787   9.3787  11.9405

     occupation numbers 
     1.0000   1.0000   1.0000   1.0000   0.0000   0.0000   0.0000   0.0000

 ------ SPIN DOWN ----------


          k = 0.0000 0.0000 0.0000 (   749 PWs)   bands (ev):

    -5.9123   6.0530   6.0530   6.0530   8.5796   8.5797   8.5797   9.2201

     occupation numbers 
     1.0000   0.9912   0.9912   0.9912   0.0000   0.0000   0.0000   0.0000

          k =-0.1414 0.1414 0.1414 (   751 PWs)   bands (ev):

    -5.3950   3.0223   5.4727   5.4727   8.1665   9.3787   9.3787  11.9405

     occupation numbers 
     1.0000   1.0000   1.0000   1.0000   0.0000   0.0000   0.0000   0.0000

          k =-0.2828 0.2828 0.2828 (   763 PWs)   bands (ev):

    -4.0306  -0.2432   4.9270   4.9270   7.5509   9.4289   9.4289  13.6868

     occupation numbers 
     1.0000   1.0000   1.0000   1.0000   0.0000   0.0000   0.0000   0.0000

          k = 0.2828-0.2828-0.2828 (   763 PWs)   bands (ev):

    -4.0306  -0.2432   4.9270   4.9270   7.5509   9.4289   9.4289  13.6868

     occupation numbers 
     1.0000   1.0000   1.0000   1.0000   0.0000   0.0000   0.0000   0.0000

          k = 0.1414-0.1414-0.1414 (   751 PWs)   bands (ev):

    -5.3950   3.0223   5.4727   5.4727   8.1665   9.3787   9.3787  11.9405

     occupation numbers 
     1.0000   1.0000   1.0000   1.0000   0.0000   0.0000   0.0000   0.0000

          k = 0.1414-0.1414 0.1414 (   751 PWs)   bands (ev):

    -5.3950   3.0223   5.4727   5.4727   8.1665   9.3787   9.3787  11.9405

     occupation numbers 
     1.0000   1.0000   1.0000   1.0000   0.0000   0.0000   0.0000   0.0000

          k = 0.0000 0.0000 0.2828 (   745 PWs)   bands (ev):

    -5.2171   3.4067   4.5609   4.5609   7.4358   9.8421  10.9017  10.9017

     occupation numbers 
     1.0000   1.0000   1.0000   1.0000   0.0000   0.0000   0.0000   0.0000

          k =-0.1414 0.1414 0.4243 (   752 PWs)   bands (ev):

    -4.0757   0.7269   3.4078   4.0540   7.7415  10.0550  10.9045  11.4454

     occupation numbers 
     1.0000   1.0000   1.0000   1.0000   0.0000   0.0000   0.0000   0.0000

          k = 0.4243-0.4243-0.1414 (   747 PWs)   bands (ev):

    -3.1883  -0.6692   2.5949   4.3382   8.0209  10.5643  10.8126  13.5286

     occupation numbers 
     1.0000   1.0000   1.0000   1.0000   0.0000   0.0000   0.0000   0.0000

          k = 0.2828-0.2828 0.0000 (   746 PWs)   bands (ev):

    -4.5635   1.5597   3.0278   5.2084   8.8662  10.0039  10.2805  11.6690

     occupation numbers 
     1.0000   1.0000   1.0000   1.0000   0.0000   0.0000   0.0000   0.0000

          k = 0.2828-0.2828 0.2828 (   763 PWs)   bands (ev):

    -4.0306  -0.2432   4.9270   4.9270   7.5509   9.4289   9.4289  13.6869

     occupation numbers 
     1.0000   1.0000   1.0000   1.0000   0.0000   0.0000   0.0000   0.0000

          k = 0.1414-0.1414 0.4243 (   752 PWs)   bands (ev):

    -4.0757   0.7269   3.4078   4.0540   7.7415  10.0550  10.9045  11.4453

     occupation numbers 
     1.0000   1.0000   1.0000   1.0000   0.0000   0.0000   0.0000   0.0000

          k = 0.0000 0.0000 0.5657 (   753 PWs)   bands (ev):

    -3.2017  -0.1360   3.3550   3.3550   6.5332   7.2613  14.4796  14.4796

     occupation numbers 
     1.0000   1.0000   1.0000   1.0000   0.0044   0.0000   0.0000   0.0000

          k = 0.5657-0.5657 0.0000 (   746 PWs)   bands (ev):

    -1.9945  -1.3948   1.9599   3.4743   6.9812   9.1216  14.0745  14.6386

     occupation numbers 
     1.0000   1.0000   1.0000   1.0000   0.0000   0.0000   0.0000   0.0000

          k = 0.4243-0.4243 0.1414 (   747 PWs)   bands (ev):

    -3.1883  -0.6692   2.5949   4.3382   8.0209  10.5643  10.8126  13.5286

     occupation numbers 
     1.0000   1.0000   1.0000   1.0000   0.0000   0.0000   0.0000   0.0000

          k =-0.2828 0.2828-0.2828 (   763 PWs)   bands (ev):

    -4.0306  -0.2432   4.9270   4.9270   7.5509   9.4289   9.4289  13.6868

     occupation numbers 
     1.0000   1.0000   1.0000   1.0000   0.0000   0.0000   0.0000   0.0000

          k =-0.4243 0.4243-0.1414 (   747 PWs)   bands (ev):

    -3.1883  -0.6692   2.5949   4.3382   8.0209  10.5643  10.8126  13.5286

     occupation numbers 
     1.0000   1.0000   1.0000   1.0000   0.0000   0.0000   0.0000   0.0000

          k =-0.5657 0.5657 0.0000 (   746 PWs)   bands (ev):

    -1.9945  -1.3948   1.9599   3.4743   6.9812   9.1216  14.0745  14.6386

     occupation numbers 
     1.0000   1.0000   1.0000   1.0000   0.0000   0.0000   0.0000   0.0000

          k = 0.0000 0.0000-0.5657 (   753 PWs)   bands (ev):

    -3.2017  -0.1360   3.3550   3.3550   6.5332   7.2613  14.4796  14.4796

     occupation numbers 
     1.0000   1.0000   1.0000   1.0000   0.0044   0.0000   0.0000   0.0000

          k =-0.1414 0.1414-0.4243 (   752 PWs)   bands (ev):

    -4.0757   0.7269   3.4078   4.0540   7.7415  10.0550  10.9045  11.4453

     occupation numbers 
     1.0000   1.0000   1.0000   1.0000   0.0000   0.0000   0.0000   0.0000

          k =-0.1414 0.1414-0.1414 (   751 PWs)   bands (ev):

    -5.3950   3.0223   5.4727   5.4727   8.1665   9.3787   9.3787  11.9405

     occupation numbers 
     1.0000   1.0000   1.0000   1.0000   0.0000   0.0000   0.0000   0.0000

          k =-0.2828 0.2828 0.0000 (   746 PWs)   bands (ev):

    -4.5635   1.5597   3.0278   5.2084   8.8662  10.0039  10.2805  11.6689

     occupation numbers 
     1.0000   1.0000   1.0000   1.0000   0.0000   0.0000   0.0000   0.0000

          k =-0.4243 0.4243 0.1414 (   747 PWs)   bands (ev):

    -3.1883  -0.6692   2.5949   4.3382   8.0209  10.5643  10.8126  13.5286

     occupation numbers 
     1.0000   1.0000   1.0000   1.0000   0.0000   0.0000   0.0000   0.0000

          k = 0.1414-0.1414-0.4243 (   752 PWs)   bands (ev):

    -4.0757   0.7269   3.4078   4.0540   7.7415  10.0550  10.9045  11.4453

     occupation numbers 
     1.0000   1.0000   1.0000   1.0000   0.0000   0.0000   0.0000   0.0000

          k = 0.0000 0.0000-0.2828 (   745 PWs)   bands (ev):

    -5.2171   3.4067   4.5609   4.5609   7.4358   9.8421  10.9017  10.9017

     occupation numbers 
     1.0000   1.0000   1.0000   1.0000   0.0000   0.0000   0.0000   0.0000

          k = 0.1414 0.1414-0.1414 (   751 PWs)   bands (ev):

    -5.3950   3.0223   5.4727   5.4727   8.1665   9.3787   9.3787  11.9405

     occupation numbers 
     1.0000   1.0000   1.0000   1.0000   0.0000   0.0000   0.0000   0.0000

          k = 0.0000 0.2828 0.0000 (   745 PWs)   bands (ev):

    -5.2171   3.4067   4.5609   4.5609   7.4358   9.8421  10.9017  10.9017

     occupation numbers 
     1.0000   1.0000   1.0000   1.0000   0.0000   0.0000   0.0000   0.0000

          k =-0.1414 0.4243 0.1414 (   752 PWs)   bands (ev):

    -4.0757   0.7269   3.4078   4.0540   7.7415  10.0550  10.9045  11.4454

     occupation numbers 
     1.0000   1.0000   1.0000   1.0000   0.0000   0.0000   0.0000   0.0000

          k = 0.4243-0.1414-0.4243 (   747 PWs)   bands (ev):

    -3.1883  -0.6692   2.5949   4.3382   8.0209  10.5643  10.8126  13.5286

     occupation numbers 
     1.0000   1.0000   1.0000   1.0000   0.0000   0.0000   0.0000   0.0000

          k = 0.2828 0.0000-0.2828 (   746 PWs)   bands (ev):

    -4.5635   1.5597   3.0278   5.2084   8.8662  10.0039  10.2805  11.6689

     occupation numbers 
     1.0000   1.0000   1.0000   1.0000   0.0000   0.0000   0.0000   0.0000

          k = 0.2828 0.0000 0.0000 (   745 PWs)   bands (ev):

    -5.2171   3.4067   4.5609   4.5609   7.4358   9.8421  10.9017  10.9017

     occupation numbers 
     1.0000   1.0000   1.0000   1.0000   0.0000   0.0000   0.0000   0.0000

          k = 0.1414 0.1414 0.1414 (   751 PWs)   bands (ev):

    -5.3950   3.0223   5.4727   5.4727   8.1665   9.3787   9.3787  11.9405

     occupation numbers 
     1.0000   1.0000   1.0000   1.0000   0.0000   0.0000   0.0000   0.0000

          k = 0.0000 0.2828 0.2828 (   746 PWs)   bands (ev):

    -4.5635   1.5597   3.0278   5.2084   8.8662  10.0039  10.2805  11.6689

     occupation numbers 
     1.0000   1.0000   1.0000   1.0000   0.0000   0.0000   0.0000   0.0000

          k = 0.5657-0.2828-0.2828 (   747 PWs)   bands (ev):

    -3.1883  -0.6692   2.5949   4.3382   8.0209  10.5643  10.8126  13.5286

     occupation numbers 
     1.0000   1.0000   1.0000   1.0000   0.0000   0.0000   0.0000   0.0000

          k = 0.4243-0.1414-0.1414 (   752 PWs)   bands (ev):

    -4.0757   0.7269   3.4078   4.0540   7.7415  10.0550  10.9045  11.4453

     occupation numbers 
     1.0000   1.0000   1.0000   1.0000   0.0000   0.0000   0.0000   0.0000

          k = 0.4243-0.1414 0.1414 (   752 PWs)   bands (ev):

    -4.0757   0.7269   3.4078   4.0540   7.7415  10.0550  10.9045  11.4454

     occupation numbers 
     1.0000   1.0000   1.0000   1.0000   0.0000   0.0000   0.0000   0.0000

          k = 0.2828 0.0000 0.2828 (   746 PWs)   bands (ev):

    -4.5635   1.5597   3.0278   5.2084   8.8662  10.0039  10.2805  11.6690

     occupation numbers 
     1.0000   1.0000   1.0000   1.0000   0.0000   0.0000   0.0000   0.0000

          k = 0.1414 0.1414 0.4243 (   752 PWs)   bands (ev):

    -4.0757   0.7269   3.4078   4.0540   7.7415  10.0550  10.9045  11.4454

     occupation numbers 
     1.0000   1.0000   1.0000   1.0000   0.0000   0.0000   0.0000   0.0000

          k = 0.7071-0.4243-0.1414 (   750 PWs)   bands (ev):

    -2.7604  -0.5175   2.0446   3.0414   9.3711   9.7400  10.4072  13.7509

     occupation numbers 
     1.0000   1.0000   1.0000   1.0000   0.0000   0.0000   0.0000   0.0000

          k = 0.5657-0.2828 0.0000 (   750 PWs)   bands (ev):

    -2.7604  -0.5175   2.0446   3.0414   9.3711   9.7400  10.4072  13.7509

     occupation numbers 
     1.0000   1.0000   1.0000   1.0000   0.0000   0.0000   0.0000   0.0000

          k =-0.1414 0.4243-0.4243 (   747 PWs)   bands (ev):

    -3.1883  -0.6692   2.5949   4.3382   8.0209  10.5643  10.8126  13.5286

     occupation numbers 
     1.0000   1.0000   1.0000   1.0000   0.0000   0.0000   0.0000   0.0000

          k =-0.2828 0.5657-0.2828 (   747 PWs)   bands (ev):

    -3.1883  -0.6692   2.5949   4.3382   8.0209  10.5643  10.8126  13.5286

     occupation numbers 
     1.0000   1.0000   1.0000   1.0000   0.0000   0.0000   0.0000   0.0000

          k =-0.4243 0.7071-0.1414 (   750 PWs)   bands (ev):

    -2.7604  -0.5175   2.0446   3.0414   9.3711   9.7400  10.4072  13.7509

     occupation numbers 
     1.0000   1.0000   1.0000   1.0000   0.0000   0.0000   0.0000   0.0000

          k = 0.1414 0.1414-0.7071 (   746 PWs)   bands (ev):

    -1.9945  -1.3948   1.9599   3.4743   6.9812   9.1216  14.0745  14.6386

     occupation numbers 
     1.0000   1.0000   1.0000   1.0000   0.0000   0.0000   0.0000   0.0000

          k =-0.0000 0.2828-0.5657 (   750 PWs)   bands (ev):

    -2.7604  -0.5175   2.0446   3.0414   9.3711   9.7400  10.4072  13.7509

     occupation numbers 
     1.0000   1.0000   1.0000   1.0000   0.0000   0.0000   0.0000   0.0000

          k = 0.0000 0.2828-0.2828 (   746 PWs)   bands (ev):

    -4.5635   1.5597   3.0278   5.2084   8.8662  10.0039  10.2805  11.6689

     occupation numbers 
     1.0000   1.0000   1.0000   1.0000   0.0000   0.0000   0.0000   0.0000

          k =-0.1414 0.4243-0.1414 (   752 PWs)   bands (ev):

    -4.0757   0.7269   3.4078   4.0540   7.7415  10.0550  10.9045  11.4453

     occupation numbers 
     1.0000   1.0000   1.0000   1.0000   0.0000   0.0000   0.0000   0.0000

          k =-0.2828 0.5657 0.0000 (   750 PWs)   bands (ev):

    -2.7604  -0.5175   2.0446   3.0414   9.3711   9.7400  10.4072  13.7509

     occupation numbers 
     1.0000   1.0000   1.0000   1.0000   0.0000   0.0000   0.0000   0.0000

          k = 0.2828-0.0000-0.5657 (   750 PWs)   bands (ev):

    -2.7604  -0.5175   2.0446   3.0414   9.3711   9.7400  10.4072  13.7509

     occupation numbers 
     1.0000   1.0000   1.0000   1.0000   0.0000   0.0000   0.0000   0.0000

          k = 0.1414 0.1414-0.4243 (   752 PWs)   bands (ev):

    -4.0757   0.7269   3.4078   4.0540   7.7415  10.0550  10.9045  11.4453

     occupation numbers 
     1.0000   1.0000   1.0000   1.0000   0.0000   0.0000   0.0000   0.0000

          k = 0.2828 0.2828-0.2828 (   763 PWs)   bands (ev):

    -4.0306  -0.2432   4.9270   4.9270   7.5509   9.4289   9.4289  13.6868

     occupation numbers 
     1.0000   1.0000   1.0000   1.0000   0.0000   0.0000   0.0000   0.0000

          k = 0.1414 0.4243-0.1414 (   752 PWs)   bands (ev):

    -4.0757   0.7269   3.4078   4.0540   7.7415  10.0550  10.9045  11.4453

     occupation numbers 
     1.0000   1.0000   1.0000   1.0000   0.0000   0.0000   0.0000   0.0000

          k = 0.0000 0.5657 0.0000 (   753 PWs)   bands (ev):

    -3.2017  -0.1360   3.3550   3.3550   6.5332   7.2613  14.4796  14.4796

     occupation numbers 
     1.0000   1.0000   1.0000   1.0000   0.0044   0.0000   0.0000   0.0000

          k = 0.5657 0.0000-0.5657 (   746 PWs)   bands (ev):

    -1.9945  -1.3948   1.9599   3.4743   6.9812   9.1216  14.0745  14.6386

     occupation numbers 
     1.0000   1.0000   1.0000   1.0000   0.0000   0.0000   0.0000   0.0000

          k = 0.4243 0.1414-0.4243 (   747 PWs)   bands (ev):

    -3.1883  -0.6692   2.5949   4.3382   8.0209  10.5643  10.8126  13.5286

     occupation numbers 
     1.0000   1.0000   1.0000   1.0000   0.0000   0.0000   0.0000   0.0000

          k = 0.4243 0.1414-0.1414 (   752 PWs)   bands (ev):

    -4.0757   0.7269   3.4078   4.0540   7.7415  10.0550  10.9045  11.4454

     occupation numbers 
     1.0000   1.0000   1.0000   1.0000   0.0000   0.0000   0.0000   0.0000

          k = 0.2828 0.2828 0.0000 (   746 PWs)   bands (ev):

    -4.5635   1.5597   3.0278   5.2084   8.8662  10.0039  10.2805  11.6689

     occupation numbers 
     1.0000   1.0000   1.0000   1.0000   0.0000   0.0000   0.0000   0.0000

          k = 0.1414 0.4243 0.1414 (   752 PWs)   bands (ev):

    -4.0757   0.7269   3.4078   4.0540   7.7415  10.0550  10.9045  11.4454

     occupation numbers 
     1.0000   1.0000   1.0000   1.0000   0.0000   0.0000   0.0000   0.0000

          k = 0.7071-0.1414-0.4243 (   750 PWs)   bands (ev):

    -2.7604  -0.5175   2.0446   3.0414   9.3711   9.7400  10.4072  13.7509

     occupation numbers 
     1.0000   1.0000   1.0000   1.0000   0.0000   0.0000   0.0000   0.0000

          k = 0.5657 0.0000-0.2828 (   750 PWs)   bands (ev):

    -2.7604  -0.5175   2.0446   3.0414   9.3711   9.7400  10.4072  13.7509

     occupation numbers 
     1.0000   1.0000   1.0000   1.0000   0.0000   0.0000   0.0000   0.0000

          k = 0.5657 0.0000 0.0000 (   753 PWs)   bands (ev):

    -3.2017  -0.1360   3.3550   3.3550   6.5332   7.2613  14.4796  14.4796

     occupation numbers 
     1.0000   1.0000   1.0000   1.0000   0.0044   0.0000   0.0000   0.0000

          k = 0.4243 0.1414 0.1414 (   752 PWs)   bands (ev):

    -4.0757   0.7269   3.4078   4.0540   7.7415  10.0550  10.9045  11.4454

     occupation numbers 
     1.0000   1.0000   1.0000   1.0000   0.0000   0.0000   0.0000   0.0000

          k = 0.2828 0.2828 0.2828 (   763 PWs)   bands (ev):

    -4.0306  -0.2432   4.9270   4.9270   7.5509   9.4289   9.4289  13.6868

     occupation numbers 
     1.0000   1.0000   1.0000   1.0000   0.0000   0.0000   0.0000   0.0000

          k = 0.8485-0.2828-0.2828 (   747 PWs)   bands (ev):

    -3.1883  -0.6692   2.5949   4.3382   8.0209  10.5643  10.8126  13.5286

     occupation numbers 
     1.0000   1.0000   1.0000   1.0000   0.0000   0.0000   0.0000   0.0000

          k = 0.7071-0.1414-0.1414 (   746 PWs)   bands (ev):

    -1.9945  -1.3948   1.9599   3.4743   6.9812   9.1216  14.0745  14.6386

     occupation numbers 
     1.0000   1.0000   1.0000   1.0000   0.0000   0.0000   0.0000   0.0000

          k = 0.0000 0.5657-0.5657 (   746 PWs)   bands (ev):

    -1.9945  -1.3948   1.9599   3.4743   6.9812   9.1216  14.0745  14.6386

     occupation numbers 
     1.0000   1.0000   1.0000   1.0000   0.0000   0.0000   0.0000   0.0000

          k =-0.1414 0.7071-0.4243 (   750 PWs)   bands (ev):

    -2.7604  -0.5175   2.0446   3.0414   9.3711   9.7400  10.4072  13.7509

     occupation numbers 
     1.0000   1.0000   1.0000   1.0000   0.0000   0.0000   0.0000   0.0000

          k =-0.2828 0.8485-0.2828 (   747 PWs)   bands (ev):

    -3.1883  -0.6692   2.5949   4.3382   8.0209  10.5643  10.8126  13.5286

     occupation numbers 
     1.0000   1.0000   1.0000   1.0000   0.0000   0.0000   0.0000   0.0000

          k = 0.2828 0.2828-0.8485 (   747 PWs)   bands (ev):

    -3.1883  -0.6692   2.5949   4.3382   8.0209  10.5643  10.8126  13.5286

     occupation numbers 
     1.0000   1.0000   1.0000   1.0000   0.0000   0.0000   0.0000   0.0000

          k = 0.1414 0.4243-0.7071 (   750 PWs)   bands (ev):

    -2.7604  -0.5175   2.0446   3.0414   9.3711   9.7400  10.4072  13.7509

     occupation numbers 
     1.0000   1.0000   1.0000   1.0000   0.0000   0.0000   0.0000   0.0000

          k = 0.1414 0.4243-0.4243 (   747 PWs)   bands (ev):

    -3.1883  -0.6692   2.5949   4.3382   8.0209  10.5643  10.8126  13.5286

     occupation numbers 
     1.0000   1.0000   1.0000   1.0000   0.0000   0.0000   0.0000   0.0000

          k = 0.0000 0.5657-0.2828 (   750 PWs)   bands (ev):

    -2.7604  -0.5175   2.0446   3.0414   9.3711   9.7400  10.4072  13.7509

     occupation numbers 
     1.0000   1.0000   1.0000   1.0000   0.0000   0.0000   0.0000   0.0000

          k =-0.1414 0.7071-0.1414 (   746 PWs)   bands (ev):

    -1.9945  -1.3948   1.9599   3.4743   6.9812   9.1216  14.0745  14.6386

     occupation numbers 
     1.0000   1.0000   1.0000   1.0000   0.0000   0.0000   0.0000   0.0000

          k = 0.4243 0.1414-0.7071 (   750 PWs)   bands (ev):

    -2.7604  -0.5175   2.0446   3.0414   9.3711   9.7400  10.4072  13.7509

     occupation numbers 
     1.0000   1.0000   1.0000   1.0000   0.0000   0.0000   0.0000   0.0000

          k = 0.2828 0.2828-0.5657 (   747 PWs)   bands (ev):

    -3.1883  -0.6692   2.5949   4.3382   8.0209  10.5643  10.8126  13.5286

     occupation numbers 
     1.0000   1.0000   1.0000   1.0000   0.0000   0.0000   0.0000   0.0000

          k =-0.2828-0.2828 0.2828 (   763 PWs)   bands (ev):

    -4.0306  -0.2432   4.9270   4.9270   7.5509   9.4289   9.4289  13.6868

     occupation numbers 
     1.0000   1.0000   1.0000   1.0000   0.0000   0.0000   0.0000   0.0000

          k =-0.4243-0.1414 0.4243 (   747 PWs)   bands (ev):

    -3.1883  -0.6692   2.5949   4.3382   8.0209  10.5643  10.8126  13.5286

     occupation numbers 
     1.0000   1.0000   1.0000   1.0000   0.0000   0.0000   0.0000   0.0000

          k =-0.5657 0.0000 0.5657 (   746 PWs)   bands (ev):

    -1.9945  -1.3948   1.9599   3.4743   6.9812   9.1216  14.0745  14.6387

     occupation numbers 
     1.0000   1.0000   1.0000   1.0000   0.0000   0.0000   0.0000   0.0000

          k = 0.0000-0.5657 0.0000 (   753 PWs)   bands (ev):

    -3.2017  -0.1360   3.3550   3.3550   6.5332   7.2613  14.4796  14.4796

     occupation numbers 
     1.0000   1.0000   1.0000   1.0000   0.0044   0.0000   0.0000   0.0000

          k =-0.1414-0.4243 0.1414 (   752 PWs)   bands (ev):

    -4.0757   0.7269   3.4078   4.0540   7.7415  10.0550  10.9045  11.4453

     occupation numbers 
     1.0000   1.0000   1.0000   1.0000   0.0000   0.0000   0.0000   0.0000

          k =-0.1414-0.4243 0.4243 (   747 PWs)   bands (ev):

    -3.1883  -0.6692   2.5949   4.3382   8.0209  10.5643  10.8126  13.5286

     occupation numbers 
     1.0000   1.0000   1.0000   1.0000   0.0000   0.0000   0.0000   0.0000

          k =-0.2828-0.2828 0.5657 (   747 PWs)   bands (ev):

    -3.1883  -0.6692   2.5949   4.3382   8.0209  10.5643  10.8126  13.5286

     occupation numbers 
     1.0000   1.0000   1.0000   1.0000   0.0000   0.0000   0.0000   0.0000

          k =-0.4243-0.1414 0.7071 (   750 PWs)   bands (ev):

    -2.7604  -0.5175   2.0446   3.0414   9.3711   9.7400  10.4072  13.7509

     occupation numbers 
     1.0000   1.0000   1.0000   1.0000   0.0000   0.0000   0.0000   0.0000

          k = 0.1414-0.7071 0.1414 (   746 PWs)   bands (ev):

    -1.9945  -1.3948   1.9599   3.4743   6.9812   9.1216  14.0745  14.6386

     occupation numbers 
     1.0000   1.0000   1.0000   1.0000   0.0000   0.0000   0.0000   0.0000

          k =-0.0000-0.5657 0.2828 (   750 PWs)   bands (ev):

    -2.7604  -0.5175   2.0446   3.0414   9.3711   9.7400  10.4072  13.7509

     occupation numbers 
     1.0000   1.0000   1.0000   1.0000   0.0000   0.0000   0.0000   0.0000

          k = 0.0000-0.5657 0.5657 (   746 PWs)   bands (ev):

    -1.9945  -1.3948   1.9599   3.4743   6.9812   9.1216  14.0745  14.6386

     occupation numbers 
     1.0000   1.0000   1.0000   1.0000   0.0000   0.0000   0.0000   0.0000

          k =-0.1414-0.4243 0.7071 (   750 PWs)   bands (ev):

    -2.7604  -0.5175   2.0446   3.0414   9.3711   9.7400  10.4072  13.7509

     occupation numbers 
     1.0000   1.0000   1.0000   1.0000   0.0000   0.0000   0.0000   0.0000

          k =-0.2828-0.2828 0.8485 (   747 PWs)   bands (ev):

    -3.1883  -0.6692   2.5949   4.3382   8.0209  10.5643  10.8126  13.5286

     occupation numbers 
     1.0000   1.0000   1.0000   1.0000   0.0000   0.0000   0.0000   0.0000

          k = 0.2828-0.8485 0.2828 (   747 PWs)   bands (ev):

    -3.1883  -0.6692   2.5949   4.3382   8.0209  10.5643  10.8126  13.5286

     occupation numbers 
     1.0000   1.0000   1.0000   1.0000   0.0000   0.0000   0.0000   0.0000

          k = 0.1414-0.7071 0.4243 (   750 PWs)   bands (ev):

    -2.7604  -0.5175   2.0446   3.0414   9.3711   9.7400  10.4072  13.7509

     occupation numbers 
     1.0000   1.0000   1.0000   1.0000   0.0000   0.0000   0.0000   0.0000

          k =-0.5657 0.0000 0.0000 (   753 PWs)   bands (ev):

    -3.2017  -0.1360   3.3550   3.3550   6.5332   7.2613  14.4796  14.4796

     occupation numbers 
     1.0000   1.0000   1.0000   1.0000   0.0044   0.0000   0.0000   0.0000

          k =-0.7071 0.1414 0.1414 (   746 PWs)   bands (ev):

    -1.9945  -1.3948   1.9599   3.4743   6.9812   9.1216  14.0745  14.6386

     occupation numbers 
     1.0000   1.0000   1.0000   1.0000   0.0000   0.0000   0.0000   0.0000

          k =-0.8485 0.2828 0.2828 (   747 PWs)   bands (ev):

    -3.1883  -0.6692   2.5949   4.3382   8.0209  10.5643  10.8126  13.5286

     occupation numbers 
     1.0000   1.0000   1.0000   1.0000   0.0000   0.0000   0.0000   0.0000

          k =-0.2828-0.2828-0.2828 (   763 PWs)   bands (ev):

    -4.0306  -0.2432   4.9270   4.9270   7.5509   9.4289   9.4289  13.6868

     occupation numbers 
     1.0000   1.0000   1.0000   1.0000   0.0000   0.0000   0.0000   0.0000

          k =-0.4243-0.1414-0.1414 (   752 PWs)   bands (ev):

    -4.0757   0.7269   3.4078   4.0540   7.7415  10.0550  10.9045  11.4453

     occupation numbers 
     1.0000   1.0000   1.0000   1.0000   0.0000   0.0000   0.0000   0.0000

          k =-0.4243-0.1414 0.1414 (   752 PWs)   bands (ev):

    -4.0757   0.7269   3.4078   4.0540   7.7415  10.0550  10.9045  11.4454

     occupation numbers 
     1.0000   1.0000   1.0000   1.0000   0.0000   0.0000   0.0000   0.0000

          k =-0.5657-0.0000 0.2828 (   750 PWs)   bands (ev):

    -2.7604  -0.5175   2.0446   3.0414   9.3711   9.7400  10.4072  13.7509

     occupation numbers 
     1.0000   1.0000   1.0000   1.0000   0.0000   0.0000   0.0000   0.0000

          k =-0.7071 0.1414 0.4243 (   750 PWs)   bands (ev):

    -2.7604  -0.5175   2.0446   3.0414   9.3711   9.7400  10.4072  13.7509

     occupation numbers 
     1.0000   1.0000   1.0000   1.0000   0.0000   0.0000   0.0000   0.0000

          k =-0.1414-0.4243-0.1414 (   752 PWs)   bands (ev):

    -4.0757   0.7269   3.4078   4.0540   7.7415  10.0550  10.9045  11.4454

     occupation numbers 
     1.0000   1.0000   1.0000   1.0000   0.0000   0.0000   0.0000   0.0000

          k =-0.2828-0.2828 0.0000 (   746 PWs)   bands (ev):

    -4.5635   1.5597   3.0278   5.2084   8.8662  10.0039  10.2805  11.6690

     occupation numbers 
     1.0000   1.0000   1.0000   1.0000   0.0000   0.0000   0.0000   0.0000

          k =-0.1414-0.1414 0.1414 (   751 PWs)   bands (ev):

    -5.3950   3.0223   5.4727   5.4727   8.1665   9.3787   9.3787  11.9405

     occupation numbers 
     1.0000   1.0000   1.0000   1.0000   0.0000   0.0000   0.0000   0.0000

          k =-0.2828 0.0000 0.2828 (   746 PWs)   bands (ev):

    -4.5635   1.5597   3.0278   5.2084   8.8662  10.0039  10.2805  11.6689

     occupation numbers 
     1.0000   1.0000   1.0000   1.0000   0.0000   0.0000   0.0000   0.0000

          k =-0.4243 0.1414 0.4243 (   747 PWs)   bands (ev):

    -3.1883  -0.6692   2.5949   4.3382   8.0209  10.5643  10.8126  13.5286

     occupation numbers 
     1.0000   1.0000   1.0000   1.0000   0.0000   0.0000   0.0000   0.0000

          k = 0.1414-0.4243-0.1414 (   752 PWs)   bands (ev):

    -4.0757   0.7269   3.4078   4.0540   7.7415  10.0550  10.9045  11.4454

     occupation numbers 
     1.0000   1.0000   1.0000   1.0000   0.0000   0.0000   0.0000   0.0000

          k = 0.0000-0.2828 0.0000 (   745 PWs)   bands (ev):

    -5.2171   3.4067   4.5609   4.5609   7.4358   9.8421  10.9017  10.9017

     occupation numbers 
     1.0000   1.0000   1.0000   1.0000   0.0000   0.0000   0.0000   0.0000

          k = 0.0000-0.2828 0.2828 (   746 PWs)   bands (ev):

    -4.5635   1.5597   3.0278   5.2084   8.8662  10.0039  10.2805  11.6689

     occupation numbers 
     1.0000   1.0000   1.0000   1.0000   0.0000   0.0000   0.0000   0.0000

          k =-0.1414-0.1414 0.4243 (   752 PWs)   bands (ev):

    -4.0757   0.7269   3.4078   4.0540   7.7415  10.0550  10.9045  11.4454

     occupation numbers 
     1.0000   1.0000   1.0000   1.0000   0.0000   0.0000   0.0000   0.0000

          k =-0.2828 0.0000 0.5657 (   750 PWs)   bands (ev):

    -2.7604  -0.5175   2.0446   3.0414   9.3711   9.7400  10.4072  13.7509

     occupation numbers 
     1.0000   1.0000   1.0000   1.0000   0.0000   0.0000   0.0000   0.0000

          k = 0.2828-0.5657-0.0000 (   750 PWs)   bands (ev):

    -2.7604  -0.5175   2.0446   3.0414   9.3711   9.7400  10.4072  13.7509

     occupation numbers 
     1.0000   1.0000   1.0000   1.0000   0.0000   0.0000   0.0000   0.0000

          k = 0.1414-0.4243 0.1414 (   752 PWs)   bands (ev):

    -4.0757   0.7269   3.4078   4.0540   7.7415  10.0550  10.9045  11.4453

     occupation numbers 
     1.0000   1.0000   1.0000   1.0000   0.0000   0.0000   0.0000   0.0000

          k = 0.1414-0.4243 0.4243 (   747 PWs)   bands (ev):

    -3.1883  -0.6692   2.5949   4.3382   8.0209  10.5643  10.8126  13.5286

     occupation numbers 
     1.0000   1.0000   1.0000   1.0000   0.0000   0.0000   0.0000   0.0000

          k = 0.0000-0.2828 0.5657 (   750 PWs)   bands (ev):

    -2.7604  -0.5175   2.0446   3.0414   9.3711   9.7400  10.4072  13.7509

     occupation numbers 
     1.0000   1.0000   1.0000   1.0000   0.0000   0.0000   0.0000   0.0000

          k =-0.1414-0.1414 0.7071 (   746 PWs)   bands (ev):

    -1.9945  -1.3948   1.9599   3.4743   6.9812   9.1216  14.0745  14.6386

     occupation numbers 
     1.0000   1.0000   1.0000   1.0000   0.0000   0.0000   0.0000   0.0000

          k = 0.4243-0.7071 0.1414 (   750 PWs)   bands (ev):

    -2.7604  -0.5175   2.0446   3.0414   9.3711   9.7400  10.4072  13.7509

     occupation numbers 
     1.0000   1.0000   1.0000   1.0000   0.0000   0.0000   0.0000   0.0000

          k = 0.2828-0.5657 0.2828 (   747 PWs)   bands (ev):

    -3.1883  -0.6692   2.5949   4.3382   8.0209  10.5643  10.8126  13.5286

     occupation numbers 
     1.0000   1.0000   1.0000   1.0000   0.0000   0.0000   0.0000   0.0000

          k =-0.4243 0.1414-0.1414 (   752 PWs)   bands (ev):

    -4.0757   0.7269   3.4078   4.0540   7.7415  10.0550  10.9045  11.4454

     occupation numbers 
     1.0000   1.0000   1.0000   1.0000   0.0000   0.0000   0.0000   0.0000

          k =-0.5657 0.2828-0.0000 (   750 PWs)   bands (ev):

    -2.7604  -0.5175   2.0446   3.0414   9.3711   9.7400  10.4072  13.7509

     occupation numbers 
     1.0000   1.0000   1.0000   1.0000   0.0000   0.0000   0.0000   0.0000

          k =-0.7071 0.4243 0.1414 (   750 PWs)   bands (ev):

    -2.7604  -0.5175   2.0446   3.0414   9.3711   9.7400  10.4072  13.7509

     occupation numbers 
     1.0000   1.0000   1.0000   1.0000   0.0000   0.0000   0.0000   0.0000

          k =-0.1414-0.1414-0.4243 (   752 PWs)   bands (ev):

    -4.0757   0.7269   3.4078   4.0540   7.7415  10.0550  10.9045  11.4454

     occupation numbers 
     1.0000   1.0000   1.0000   1.0000   0.0000   0.0000   0.0000   0.0000

          k =-0.2828 0.0000-0.2828 (   746 PWs)   bands (ev):

    -4.5635   1.5597   3.0278   5.2084   8.8662  10.0039  10.2805  11.6689

     occupation numbers 
     1.0000   1.0000   1.0000   1.0000   0.0000   0.0000   0.0000   0.0000

          k =-0.2828 0.0000 0.0000 (   745 PWs)   bands (ev):

    -5.2171   3.4067   4.5609   4.5609   7.4358   9.8421  10.9017  10.9017

     occupation numbers 
     1.0000   1.0000   1.0000   1.0000   0.0000   0.0000   0.0000   0.0000

          k =-0.4243 0.1414 0.1414 (   752 PWs)   bands (ev):

    -4.0757   0.7269   3.4078   4.0540   7.7415  10.0550  10.9045  11.4453

     occupation numbers 
     1.0000   1.0000   1.0000   1.0000   0.0000   0.0000   0.0000   0.0000

          k =-0.5657 0.2828 0.2828 (   747 PWs)   bands (ev):

    -3.1883  -0.6692   2.5949   4.3382   8.0209  10.5643  10.8126  13.5286

     occupation numbers 
     1.0000   1.0000   1.0000   1.0000   0.0000   0.0000   0.0000   0.0000

          k = 0.0000-0.2828-0.2828 (   746 PWs)   bands (ev):

    -4.5635   1.5597   3.0278   5.2084   8.8662  10.0039  10.2805  11.6689

     occupation numbers 
     1.0000   1.0000   1.0000   1.0000   0.0000   0.0000   0.0000   0.0000

          k =-0.1414-0.1414-0.1414 (   751 PWs)   bands (ev):

    -5.3950   3.0223   5.4727   5.4727   8.1665   9.3787   9.3787  11.9405

     occupation numbers 
     1.0000   1.0000   1.0000   1.0000   0.0000   0.0000   0.0000   0.0000

     the spin up/dw Fermi energies are     6.2813    6.2813 ev

!    total energy              =     -17.04533261 Ry
     estimated scf accuracy    <          2.8E-11 Ry
     smearing contrib. (-TS)   =      -0.00001691 Ry
     internal energy E=F+TS    =     -17.04531571 Ry

     The total energy is F=E-TS. E is the sum of the following terms:
     one-electron contribution =       4.84693409 Ry
     hartree contribution      =       1.10525237 Ry
     xc contribution           =      -6.20152785 Ry
     ewald contribution        =     -16.79597432 Ry

     total magnetization       =     0.00 Bohr mag/cell
     absolute magnetization    =     0.00 Bohr mag/cell

     convergence has been achieved in   8 iterations

     Forces acting on atoms (cartesian axes, Ry/au):

     atom    1 type  1   force =    -0.00000002    0.00000002    0.00000001
     atom    2 type  1   force =     0.00000002   -0.00000002   -0.00000001
     The non-local contrib.  to forces
     atom    1 type  1   force =    -0.00000018   -0.00000006   -0.00000003
     atom    2 type  1   force =     0.00000018    0.00000019    0.00000004
     The ionic contribution  to forces
     atom    1 type  1   force =     0.00000000    0.00000000    0.00000000
     atom    2 type  1   force =    -0.00000000   -0.00000000   -0.00000000
     The local contribution  to forces
     atom    1 type  1   force =     0.00000030    0.00000022    0.00000010
     atom    2 type  1   force =    -0.00000026   -0.00000029   -0.00000014
     The core correction contribution to forces
     atom    1 type  1   force =     0.00000001    0.00000001    0.00000000
     atom    2 type  1   force =    -0.00000001   -0.00000001   -0.00000000
     The Hubbard contrib.    to forces
     atom    1 type  1   force =     0.00000000    0.00000000    0.00000000
     atom    2 type  1   force =     0.00000000    0.00000000    0.00000000
     The SCF correction term to forces
     atom    1 type  1   force =    -0.00000013   -0.00000012   -0.00000007
     atom    2 type  1   force =     0.00000012    0.00000012    0.00000009

     Total force =     0.000000     Total SCF correction =     0.000000
     SCF correction compared to forces is large: reduce conv_thr to get better values


     Computing stress (Cartesian axis) and pressure

          total   stress  (Ry/bohr**3)                   (kbar)     P=      -17.24
  -0.00011722  -0.00000000  -0.00000000          -17.24       -0.00       -0.00
  -0.00000000  -0.00011722  -0.00000000           -0.00      -17.24       -0.00
  -0.00000000  -0.00000000  -0.00011722           -0.00       -0.00      -17.24

     kinetic stress (kbar)   2240.60     -0.00     -0.00
                               -0.00   2240.60     -0.00
                               -0.00     -0.00   2240.60

     local   stress (kbar)   -422.03     -0.00     -0.00
                               -0.00   -422.03     -0.00
                               -0.00     -0.00   -422.03

     nonloc. stress (kbar)   1968.64      0.00     -0.00
                                0.00   1968.64      0.00
                               -0.00      0.00   1968.64

     hartree stress (kbar)    200.54      0.00      0.00
                                0.00    200.54      0.00
                                0.00      0.00    200.54

     exc-cor stress (kbar)   -150.42      0.00      0.00
                                0.00   -150.42      0.00
                                0.00      0.00   -150.42

     corecor stress (kbar)   -807.06     -0.00      0.00
                               -0.00   -807.06     -0.00
                                0.00     -0.00   -807.06

     ewald   stress (kbar)  -3047.51     -0.00      0.00
                               -0.00  -3047.51     -0.00
                                0.00     -0.00  -3047.51

     hubbard stress (kbar)      0.00      0.00      0.00
                                0.00      0.00      0.00
                                0.00      0.00      0.00

     DFT-D   stress (kbar)      0.00      0.00      0.00
                                0.00      0.00      0.00
                                0.00      0.00      0.00

     XDM     stress (kbar)      0.00      0.00      0.00
                                0.00      0.00      0.00
                                0.00      0.00      0.00

     dft-nl  stress (kbar)      0.00      0.00      0.00
                                0.00      0.00      0.00
                                0.00      0.00      0.00

     TS-vdW  stress (kbar)      0.00      0.00      0.00
                                0.00      0.00      0.00
                                0.00      0.00      0.00

     MDB     stress (kbar)      0.00      0.00      0.00
                                0.00      0.00      0.00
                                0.00      0.00      0.00

     3D-RISM stress (kbar)      0.00      0.00      0.00
                                0.00      0.00      0.00
                                0.00      0.00      0.00


     Writing all to output data dir ./out/si_lda_trial.save/ :
     XML data file, charge density, pseudopotentials, collected wavefunctions

     init_run     :      0.75s CPU      0.77s WALL (       1 calls)
     electrons    :     12.71s CPU     12.89s WALL (       1 calls)
     forces       :      0.26s CPU      0.26s WALL (       1 calls)
     stress       :      1.34s CPU      1.34s WALL (       1 calls)

     Called by init_run:
     wfcinit      :      0.61s CPU      0.63s WALL (       1 calls)
     wfcinit:atom :      0.02s CPU      0.02s WALL (     250 calls)
     wfcinit:wfcr :      0.48s CPU      0.49s WALL (     250 calls)
     potinit      :      0.03s CPU      0.03s WALL (       1 calls)
     hinit0       :      0.10s CPU      0.10s WALL (       1 calls)

     Called by electrons:
     c_bands      :     11.37s CPU     11.55s WALL (       9 calls)
     sum_band     :      1.31s CPU      1.31s WALL (       9 calls)
     v_of_rho     :      0.02s CPU      0.02s WALL (       9 calls)
     v_h          :      0.00s CPU      0.00s WALL (       9 calls)
     v_xc         :      0.02s CPU      0.03s WALL (      11 calls)
     mix_rho      :      0.01s CPU      0.01s WALL (       9 calls)

     Called by c_bands:
     init_us_2    :      0.77s CPU      0.78s WALL (    5250 calls)
     cegterg      :      9.73s CPU      9.88s WALL (    2250 calls)

     Called by sum_band:
     sum_band:wei :      0.00s CPU      0.00s WALL (       9 calls)
     sum_band:loo :      1.30s CPU      1.30s WALL (       9 calls)
     sum_band:buf :      0.02s CPU      0.02s WALL (    2250 calls)
     sum_band:ini :      0.31s CPU      0.31s WALL (    2250 calls)

     Called by *egterg:
     cdiaghg      :      0.39s CPU      0.40s WALL (    8147 calls)
     cegterg:over :      0.59s CPU      0.60s WALL (    6147 calls)
     cegterg:upda :      0.31s CPU      0.32s WALL (    6147 calls)
     cegterg:last :      0.46s CPU      0.47s WALL (    4318 calls)
     h_psi        :      8.01s CPU      8.14s WALL (    8647 calls)
     g_psi        :      0.07s CPU      0.07s WALL (    6147 calls)

     Called by h_psi:
     h_psi:calbec :      1.22s CPU      1.24s WALL (    8647 calls)
     vloc_psi     :      5.69s CPU      5.78s WALL (    8647 calls)
     add_vuspsi   :      1.04s CPU      1.06s WALL (    8647 calls)

     General routines
     calbec       :      1.45s CPU      1.47s WALL (    9897 calls)
     fft          :      0.04s CPU      0.04s WALL (      53 calls)
     ffts         :      0.00s CPU      0.00s WALL (      18 calls)
     fftw         :      5.50s CPU      5.58s WALL (  114672 calls)

     Parallel routines

     PWSCF        :     15.11s CPU     15.31s WALL


   This run was terminated on:   8:21:46  16Sep2024            

=------------------------------------------------------------------------------=
   JOB DONE.
=------------------------------------------------------------------------------=
