
     Program PWSCF v.7.3.1 starts on 16Sep2024 at  8:20:23 

     This program is part of the open-source Quantum ESPRESSO suite
     for quantum simulation of materials; please cite
         "P. Giannozzi et al., J. Phys.:Condens. Matter 21 395502 (2009);
         "P. Giannozzi et al., J. Phys.:Condens. Matter 29 465901 (2017);
         "P. Giannozzi et al., J. Chem. Phys. 152 154105 (2020);
          URL http://www.quantum-espresso.org", 
     in publications or presentations arising from this work. More details at
     http://www.quantum-espresso.org/quote

     Parallel version (MPI), running on     1 processors

     MPI processes distributed on     1 nodes
     4073 MiB available memory on the printing compute node when the environment starts

     Waiting for input...
     Reading input from standard input

     Current dimensions of program PWSCF are:
     Max number of different atomic species (ntypx) = 10
     Max number of k-points (npk) =  40000
     Max angular momentum in pseudopotentials (lmaxx) =  4
     Message from routine volume:
     axis vectors are left-handed

     Subspace diagonalization in iterative solution of the eigenvalue problem:
     a serial algorithm will be used


     G-vector sticks info
     --------------------
     sticks:   dense  smooth     PW     G-vecs:    dense   smooth      PW
     Sum         433     433    139                 5985     5985    1067

     Using Slab Decomposition



     bravais-lattice index     =            0
     lattice parameter (alat)  =       7.2571  a.u.
     unit-cell volume          =     270.2504 (a.u.)^3
     number of atoms/cell      =            2
     number of atomic types    =            1
     number of electrons       =         8.00 (up:   4.00, down:   4.00)
     number of Kohn-Sham states=            8
     kinetic-energy cutoff     =      30.0000  Ry
     charge density cutoff     =     120.0000  Ry
     scf convergence threshold =      4.0E-10
     mixing beta               =       0.4000
     number of iterations used =            8  plain     mixing
     Exchange-correlation= SLA  PW   NOGX NOGC
                           (   1   4   0   0   0   0   0)

     celldm(1)=   7.257056  celldm(2)=   0.000000  celldm(3)=   0.000000
     celldm(4)=   0.000000  celldm(5)=   0.000000  celldm(6)=   0.000000

     crystal axes: (cart. coord. in units of alat)
               a(1) = (   0.707107   0.707107   0.000000 )  
               a(2) = (   0.707107   0.000000   0.707107 )  
               a(3) = (   0.000000   0.707107   0.707107 )  

     reciprocal axes: (cart. coord. in units 2 pi/alat)
               b(1) = (  0.707107  0.707107 -0.707107 )  
               b(2) = (  0.707107 -0.707107  0.707107 )  
               b(3) = ( -0.707107  0.707107  0.707107 )  


     PseudoPot. # 1 for Si read from file:
     ./pseudo/Si_lda.upf
     MD5 check sum: 9e2d726316af3d4752eea8ab0afbb951
     Pseudo is Norm-conserving + core correction, Zval =  4.0
     Generated using ONCVPSP code by D. R. Hamann
     Using radial grid of 1510 points,  6 beta functions with: 
                l(1) =   0
                l(2) =   0
                l(3) =   1
                l(4) =   1
                l(5) =   2
                l(6) =   2

     atomic species   valence    mass     pseudopotential
     Si                4.00    28.08550     Si( 1.00)

     Starting magnetic structure 
     atomic species   magnetization
     Si              0.000

     No symmetry found


                                    s                        frac. trans.

      isym =  1     identity                                     

 cryst.   s( 1) = (     1          0          0      )
                  (     0          1          0      )
                  (     0          0          1      )

 cart.    s( 1) = (  1.0000000  0.0000000  0.0000000 )
                  (  0.0000000  1.0000000  0.0000000 )
                  (  0.0000000  0.0000000  1.0000000 )


   Cartesian axes

     site n.     atom                  positions (alat units)
         1        Si     tau(   1) = (   0.0000000   0.0000000   0.0000000  )
         2        Si     tau(   2) = (   0.3535534   0.3535534   0.3535534  )

   Crystallographic axes

     site n.     atom                  positions (cryst. coord.)
         1        Si     tau(   1) = (  0.0000000  0.0000000  0.0000000  )
         2        Si     tau(   2) = (  0.2500000  0.2500000  0.2500000  )

     number of k points=    27  Gaussian smearing, width (Ry)=  0.0100
                       cart. coord. in units 2pi/alat
        k(    1) = (   0.0000000   0.0000000   0.0000000), wk =   0.0370370
        k(    2) = (  -0.2357023   0.2357023   0.2357023), wk =   0.0370370
        k(    3) = (   0.2357023  -0.2357023  -0.2357023), wk =   0.0370370
        k(    4) = (   0.2357023  -0.2357023   0.2357023), wk =   0.0370370
        k(    5) = (   0.0000000   0.0000000   0.4714045), wk =   0.0370370
        k(    6) = (   0.4714045  -0.4714045  -0.0000000), wk =   0.0370370
        k(    7) = (  -0.2357023   0.2357023  -0.2357023), wk =   0.0370370
        k(    8) = (  -0.4714045   0.4714045  -0.0000000), wk =   0.0370370
        k(    9) = (   0.0000000   0.0000000  -0.4714045), wk =   0.0370370
        k(   10) = (   0.2357023   0.2357023  -0.2357023), wk =   0.0370370
        k(   11) = (   0.0000000   0.4714045   0.0000000), wk =   0.0370370
        k(   12) = (   0.4714045  -0.0000000  -0.4714045), wk =   0.0370370
        k(   13) = (   0.4714045   0.0000000   0.0000000), wk =   0.0370370
        k(   14) = (   0.2357023   0.2357023   0.2357023), wk =   0.0370370
        k(   15) = (   0.7071068  -0.2357023  -0.2357023), wk =   0.0370370
        k(   16) = (  -0.0000000   0.4714045  -0.4714045), wk =   0.0370370
        k(   17) = (  -0.2357023   0.7071068  -0.2357023), wk =   0.0370370
        k(   18) = (   0.2357023   0.2357023  -0.7071068), wk =   0.0370370
        k(   19) = (  -0.2357023  -0.2357023   0.2357023), wk =   0.0370370
        k(   20) = (  -0.4714045  -0.0000000   0.4714045), wk =   0.0370370
        k(   21) = (   0.0000000  -0.4714045   0.0000000), wk =   0.0370370
        k(   22) = (  -0.0000000  -0.4714045   0.4714045), wk =   0.0370370
        k(   23) = (  -0.2357023  -0.2357023   0.7071068), wk =   0.0370370
        k(   24) = (   0.2357023  -0.7071068   0.2357023), wk =   0.0370370
        k(   25) = (  -0.4714045   0.0000000   0.0000000), wk =   0.0370370
        k(   26) = (  -0.7071068   0.2357023   0.2357023), wk =   0.0370370
        k(   27) = (  -0.2357023  -0.2357023  -0.2357023), wk =   0.0370370

                       cryst. coord.
        k(    1) = (   0.0000000   0.0000000   0.0000000), wk =   0.0370370
        k(    2) = (   0.0000000   0.0000000   0.3333333), wk =   0.0370370
        k(    3) = (   0.0000000   0.0000000  -0.3333333), wk =   0.0370370
        k(    4) = (   0.0000000   0.3333333   0.0000000), wk =   0.0370370
        k(    5) = (   0.0000000   0.3333333   0.3333333), wk =   0.0370370
        k(    6) = (   0.0000000   0.3333333  -0.3333333), wk =   0.0370370
        k(    7) = (   0.0000000  -0.3333333   0.0000000), wk =   0.0370370
        k(    8) = (   0.0000000  -0.3333333   0.3333333), wk =   0.0370370
        k(    9) = (   0.0000000  -0.3333333  -0.3333333), wk =   0.0370370
        k(   10) = (   0.3333333   0.0000000   0.0000000), wk =   0.0370370
        k(   11) = (   0.3333333   0.0000000   0.3333333), wk =   0.0370370
        k(   12) = (   0.3333333   0.0000000  -0.3333333), wk =   0.0370370
        k(   13) = (   0.3333333   0.3333333   0.0000000), wk =   0.0370370
        k(   14) = (   0.3333333   0.3333333   0.3333333), wk =   0.0370370
        k(   15) = (   0.3333333   0.3333333  -0.3333333), wk =   0.0370370
        k(   16) = (   0.3333333  -0.3333333   0.0000000), wk =   0.0370370
        k(   17) = (   0.3333333  -0.3333333   0.3333333), wk =   0.0370370
        k(   18) = (   0.3333333  -0.3333333  -0.3333333), wk =   0.0370370
        k(   19) = (  -0.3333333   0.0000000   0.0000000), wk =   0.0370370
        k(   20) = (  -0.3333333   0.0000000   0.3333333), wk =   0.0370370
        k(   21) = (  -0.3333333   0.0000000  -0.3333333), wk =   0.0370370
        k(   22) = (  -0.3333333   0.3333333   0.0000000), wk =   0.0370370
        k(   23) = (  -0.3333333   0.3333333   0.3333333), wk =   0.0370370
        k(   24) = (  -0.3333333   0.3333333  -0.3333333), wk =   0.0370370
        k(   25) = (  -0.3333333  -0.3333333   0.0000000), wk =   0.0370370
        k(   26) = (  -0.3333333  -0.3333333   0.3333333), wk =   0.0370370
        k(   27) = (  -0.3333333  -0.3333333  -0.3333333), wk =   0.0370370

     Dense  grid:     5985 G-vectors     FFT dimensions: (  25,  25,  25)

     Dynamical RAM for                 wfc:       0.09 MB

     Dynamical RAM for     wfc (w. buffer):       5.04 MB

     Dynamical RAM for           str. fact:       0.09 MB

     Dynamical RAM for           local pot:       0.00 MB

     Dynamical RAM for          nlocal pot:       0.41 MB

     Dynamical RAM for                qrad:       0.88 MB

     Dynamical RAM for          rho,v,vnew:       1.26 MB

     Dynamical RAM for               rhoin:       0.42 MB

     Dynamical RAM for            rho*nmix:       2.92 MB

     Dynamical RAM for           G-vectors:       0.39 MB

     Dynamical RAM for          h,s,v(r/c):       0.01 MB

     Dynamical RAM for          <psi|beta>:       0.00 MB

     Dynamical RAM for                 psi:       0.18 MB

     Dynamical RAM for                hpsi:       0.18 MB

     Dynamical RAM for      wfcinit/wfcrot:       0.18 MB

     Estimated static dynamical RAM per process >       9.39 MB

     Estimated max dynamical RAM per process >      12.69 MB
     Generating pointlists ...
     new r_m :   0.2526 (alat units)  1.8332 (a.u.) for type    1

     Initial potential from superposition of free atoms

     starting charge       7.9989, renormalised to       8.0000
     Starting wfcs are    8 randomized atomic wfcs

     total cpu time spent up to now is        0.3 secs

     Self-consistent Calculation

     iteration #  1     ecut=    30.00 Ry     beta= 0.40
     Davidson diagonalization with overlap

---- Real-time Memory Report at c_bands before calling an iterative solver
            39 MiB given to the printing process from OS
             0 MiB allocation reported by mallinfo(arena+hblkhd)
          4051 MiB available memory on the node where the printing process lives
------------------
     ethr =  1.00E-02,  avg # of iterations =  3.4

     Threshold (ethr) on eigenvalues was too large:
     Diagonalizing with lowered threshold

     Davidson diagonalization with overlap

---- Real-time Memory Report at c_bands before calling an iterative solver
            39 MiB given to the printing process from OS
             0 MiB allocation reported by mallinfo(arena+hblkhd)
          4049 MiB available memory on the node where the printing process lives
------------------
     ethr =  8.68E-04,  avg # of iterations =  1.3

     total cpu time spent up to now is        0.9 secs

     total energy              =     -17.00743631 Ry
     estimated scf accuracy    <       0.07467442 Ry

     total magnetization       =    -0.00 Bohr mag/cell
     absolute magnetization    =     0.00 Bohr mag/cell

     iteration #  2     ecut=    30.00 Ry     beta= 0.40
     Davidson diagonalization with overlap

---- Real-time Memory Report at c_bands before calling an iterative solver
            43 MiB given to the printing process from OS
             0 MiB allocation reported by mallinfo(arena+hblkhd)
          4042 MiB available memory on the node where the printing process lives
------------------
     ethr =  9.33E-04,  avg # of iterations =  1.7

     total cpu time spent up to now is        1.1 secs

     total energy              =     -17.00170022 Ry
     estimated scf accuracy    <       0.02049006 Ry

     total magnetization       =    -0.00 Bohr mag/cell
     absolute magnetization    =     0.00 Bohr mag/cell

     iteration #  3     ecut=    30.00 Ry     beta= 0.40
     Davidson diagonalization with overlap

---- Real-time Memory Report at c_bands before calling an iterative solver
            43 MiB given to the printing process from OS
             0 MiB allocation reported by mallinfo(arena+hblkhd)
          4043 MiB available memory on the node where the printing process lives
------------------
     ethr =  2.56E-04,  avg # of iterations =  5.1

     total cpu time spent up to now is        1.4 secs

     total energy              =     -17.00314644 Ry
     estimated scf accuracy    <       0.00033544 Ry

     total magnetization       =     0.00 Bohr mag/cell
     absolute magnetization    =     0.00 Bohr mag/cell

     iteration #  4     ecut=    30.00 Ry     beta= 0.40
     Davidson diagonalization with overlap

---- Real-time Memory Report at c_bands before calling an iterative solver
            43 MiB given to the printing process from OS
             0 MiB allocation reported by mallinfo(arena+hblkhd)
          4042 MiB available memory on the node where the printing process lives
------------------
     ethr =  4.19E-06,  avg # of iterations =  3.9

     total cpu time spent up to now is        1.8 secs

     total energy              =     -17.00320847 Ry
     estimated scf accuracy    <       0.00005129 Ry

     total magnetization       =     0.00 Bohr mag/cell
     absolute magnetization    =     0.00 Bohr mag/cell

     iteration #  5     ecut=    30.00 Ry     beta= 0.40
     Davidson diagonalization with overlap

---- Real-time Memory Report at c_bands before calling an iterative solver
            44 MiB given to the printing process from OS
             0 MiB allocation reported by mallinfo(arena+hblkhd)
          4042 MiB available memory on the node where the printing process lives
------------------
     ethr =  6.41E-07,  avg # of iterations =  1.5

     total cpu time spent up to now is        2.0 secs

     total energy              =     -17.00321531 Ry
     estimated scf accuracy    <       0.00000072 Ry

     total magnetization       =    -0.00 Bohr mag/cell
     absolute magnetization    =     0.00 Bohr mag/cell

     iteration #  6     ecut=    30.00 Ry     beta= 0.40
     Davidson diagonalization with overlap

---- Real-time Memory Report at c_bands before calling an iterative solver
            44 MiB given to the printing process from OS
             0 MiB allocation reported by mallinfo(arena+hblkhd)
          4041 MiB available memory on the node where the printing process lives
------------------
     ethr =  8.94E-09,  avg # of iterations =  3.0

     total cpu time spent up to now is        2.3 secs

     total energy              =     -17.00321546 Ry
     estimated scf accuracy    <       0.00000024 Ry

     total magnetization       =     0.00 Bohr mag/cell
     absolute magnetization    =     0.00 Bohr mag/cell

     iteration #  7     ecut=    30.00 Ry     beta= 0.40
     Davidson diagonalization with overlap

---- Real-time Memory Report at c_bands before calling an iterative solver
            44 MiB given to the printing process from OS
             0 MiB allocation reported by mallinfo(arena+hblkhd)
          4028 MiB available memory on the node where the printing process lives
------------------
     ethr =  2.96E-09,  avg # of iterations =  1.9

     total cpu time spent up to now is        2.6 secs

     total energy              =     -17.00321550 Ry
     estimated scf accuracy    <          1.9E-09 Ry

     total magnetization       =    -0.00 Bohr mag/cell
     absolute magnetization    =     0.00 Bohr mag/cell

     iteration #  8     ecut=    30.00 Ry     beta= 0.40
     Davidson diagonalization with overlap

---- Real-time Memory Report at c_bands before calling an iterative solver
            45 MiB given to the printing process from OS
             0 MiB allocation reported by mallinfo(arena+hblkhd)
          4027 MiB available memory on the node where the printing process lives
------------------
     ethr =  2.39E-11,  avg # of iterations =  3.3

     Magnetic moment per site  (integrated on atomic sphere of radius R)
     atom   1 (R=0.253)  charge=  1.8460  magn= -0.0000
     atom   2 (R=0.253)  charge=  1.8487  magn=  0.0000

     total cpu time spent up to now is        2.8 secs

     End of self-consistent calculation

 ------ SPIN UP ------------


          k = 0.0000 0.0000 0.0000 (   749 PWs)   bands (ev):

    -5.8474   6.1422   6.1422   6.1422   8.6274   8.6274   8.6274   9.3065

     occupation numbers 
     1.0000   0.9981   0.9981   0.9981   0.0000   0.0000   0.0000   0.0000

          k =-0.2357 0.2357 0.2357 (   757 PWs)   bands (ev):

    -4.4661   0.7615   5.1332   5.1332   7.7567   9.5646   9.5646  13.7611

     occupation numbers 
     1.0000   1.0000   1.0000   1.0000   0.0000   0.0000   0.0000   0.0000

          k = 0.2357-0.2357-0.2357 (   757 PWs)   bands (ev):

    -4.4661   0.7615   5.1332   5.1332   7.7567   9.5646   9.5646  13.7611

     occupation numbers 
     1.0000   1.0000   1.0000   1.0000   0.0000   0.0000   0.0000   0.0000

          k = 0.2357-0.2357 0.2357 (   757 PWs)   bands (ev):

    -4.4661   0.7615   5.1332   5.1332   7.7567   9.5646   9.5646  13.7611

     occupation numbers 
     1.0000   1.0000   1.0000   1.0000   0.0000   0.0000   0.0000   0.0000

          k = 0.0000 0.0000 0.4714 (   749 PWs)   bands (ev):

    -3.9398   1.1103   3.6996   3.6996   6.7187   7.9728  13.3169  13.3170

     occupation numbers 
     1.0000   1.0000   1.0000   1.0000   0.0010   0.0000   0.0000   0.0000

          k = 0.4714-0.4714-0.0000 (   740 PWs)   bands (ev):

    -2.5695  -0.6526   1.6544   4.0099   7.5579  11.8234  12.5248  13.0967

     occupation numbers 
     1.0000   1.0000   1.0000   1.0000   0.0000   0.0000   0.0000   0.0000

          k =-0.2357 0.2357-0.2357 (   757 PWs)   bands (ev):

    -4.4661   0.7615   5.1332   5.1332   7.7567   9.5646   9.5646  13.7611

     occupation numbers 
     1.0000   1.0000   1.0000   1.0000   0.0000   0.0000   0.0000   0.0000

          k =-0.4714 0.4714-0.0000 (   740 PWs)   bands (ev):

    -2.5695  -0.6526   1.6544   4.0099   7.5579  11.8234  12.5248  13.0967

     occupation numbers 
     1.0000   1.0000   1.0000   1.0000   0.0000   0.0000   0.0000   0.0000

          k = 0.0000 0.0000-0.4714 (   749 PWs)   bands (ev):

    -3.9398   1.1103   3.6996   3.6996   6.7187   7.9728  13.3169  13.3170

     occupation numbers 
     1.0000   1.0000   1.0000   1.0000   0.0010   0.0000   0.0000   0.0000

          k = 0.2357 0.2357-0.2357 (   757 PWs)   bands (ev):

    -4.4661   0.7615   5.1332   5.1332   7.7567   9.5646   9.5646  13.7611

     occupation numbers 
     1.0000   1.0000   1.0000   1.0000   0.0000   0.0000   0.0000   0.0000

          k = 0.0000 0.4714 0.0000 (   749 PWs)   bands (ev):

    -3.9398   1.1103   3.6996   3.6996   6.7187   7.9728  13.3169  13.3169

     occupation numbers 
     1.0000   1.0000   1.0000   1.0000   0.0010   0.0000   0.0000   0.0000

          k = 0.4714-0.0000-0.4714 (   740 PWs)   bands (ev):

    -2.5695  -0.6526   1.6544   4.0099   7.5579  11.8234  12.5248  13.0967

     occupation numbers 
     1.0000   1.0000   1.0000   1.0000   0.0000   0.0000   0.0000   0.0000

          k = 0.4714 0.0000 0.0000 (   749 PWs)   bands (ev):

    -3.9398   1.1103   3.6996   3.6996   6.7187   7.9728  13.3169  13.3170

     occupation numbers 
     1.0000   1.0000   1.0000   1.0000   0.0010   0.0000   0.0000   0.0000

          k = 0.2357 0.2357 0.2357 (   757 PWs)   bands (ev):

    -4.4661   0.7615   5.1332   5.1332   7.7567   9.5646   9.5646  13.7611

     occupation numbers 
     1.0000   1.0000   1.0000   1.0000   0.0000   0.0000   0.0000   0.0000

          k = 0.7071-0.2357-0.2357 (   740 PWs)   bands (ev):

    -2.5695  -0.6526   1.6544   4.0099   7.5579  11.8234  12.5248  13.0967

     occupation numbers 
     1.0000   1.0000   1.0000   1.0000   0.0000   0.0000   0.0000   0.0000

          k =-0.0000 0.4714-0.4714 (   740 PWs)   bands (ev):

    -2.5695  -0.6526   1.6544   4.0099   7.5579  11.8234  12.5248  13.0967

     occupation numbers 
     1.0000   1.0000   1.0000   1.0000   0.0000   0.0000   0.0000   0.0000

          k =-0.2357 0.7071-0.2357 (   740 PWs)   bands (ev):

    -2.5695  -0.6526   1.6544   4.0099   7.5579  11.8234  12.5248  13.0967

     occupation numbers 
     1.0000   1.0000   1.0000   1.0000   0.0000   0.0000   0.0000   0.0000

          k = 0.2357 0.2357-0.7071 (   740 PWs)   bands (ev):

    -2.5695  -0.6526   1.6544   4.0099   7.5579  11.8234  12.5249  13.0967

     occupation numbers 
     1.0000   1.0000   1.0000   1.0000   0.0000   0.0000   0.0000   0.0000

          k =-0.2357-0.2357 0.2357 (   757 PWs)   bands (ev):

    -4.4661   0.7615   5.1332   5.1332   7.7567   9.5646   9.5646  13.7611

     occupation numbers 
     1.0000   1.0000   1.0000   1.0000   0.0000   0.0000   0.0000   0.0000

          k =-0.4714-0.0000 0.4714 (   740 PWs)   bands (ev):

    -2.5695  -0.6526   1.6544   4.0099   7.5579  11.8234  12.5248  13.0967

     occupation numbers 
     1.0000   1.0000   1.0000   1.0000   0.0000   0.0000   0.0000   0.0000

          k = 0.0000-0.4714 0.0000 (   749 PWs)   bands (ev):

    -3.9398   1.1103   3.6996   3.6996   6.7187   7.9728  13.3169  13.3170

     occupation numbers 
     1.0000   1.0000   1.0000   1.0000   0.0010   0.0000   0.0000   0.0000

          k =-0.0000-0.4714 0.4714 (   740 PWs)   bands (ev):

    -2.5695  -0.6526   1.6544   4.0099   7.5579  11.8234  12.5248  13.0967

     occupation numbers 
     1.0000   1.0000   1.0000   1.0000   0.0000   0.0000   0.0000   0.0000

          k =-0.2357-0.2357 0.7071 (   740 PWs)   bands (ev):

    -2.5695  -0.6526   1.6544   4.0099   7.5579  11.8234  12.5248  13.0967

     occupation numbers 
     1.0000   1.0000   1.0000   1.0000   0.0000   0.0000   0.0000   0.0000

          k = 0.2357-0.7071 0.2357 (   740 PWs)   bands (ev):

    -2.5695  -0.6526   1.6544   4.0099   7.5579  11.8234  12.5248  13.0967

     occupation numbers 
     1.0000   1.0000   1.0000   1.0000   0.0000   0.0000   0.0000   0.0000

          k =-0.4714 0.0000 0.0000 (   749 PWs)   bands (ev):

    -3.9398   1.1103   3.6996   3.6996   6.7187   7.9728  13.3169  13.3169

     occupation numbers 
     1.0000   1.0000   1.0000   1.0000   0.0010   0.0000   0.0000   0.0000

          k =-0.7071 0.2357 0.2357 (   740 PWs)   bands (ev):

    -2.5695  -0.6526   1.6544   4.0099   7.5579  11.8234  12.5248  13.0967

     occupation numbers 
     1.0000   1.0000   1.0000   1.0000   0.0000   0.0000   0.0000   0.0000

          k =-0.2357-0.2357-0.2357 (   757 PWs)   bands (ev):

    -4.4661   0.7615   5.1332   5.1332   7.7567   9.5646   9.5646  13.7611

     occupation numbers 
     1.0000   1.0000   1.0000   1.0000   0.0000   0.0000   0.0000   0.0000

 ------ SPIN DOWN ----------


          k = 0.0000 0.0000 0.0000 (   749 PWs)   bands (ev):

    -5.8474   6.1422   6.1422   6.1422   8.6274   8.6274   8.6274   9.3065

     occupation numbers 
     1.0000   0.9981   0.9981   0.9981   0.0000   0.0000   0.0000   0.0000

          k =-0.2357 0.2357 0.2357 (   757 PWs)   bands (ev):

    -4.4661   0.7615   5.1332   5.1332   7.7567   9.5646   9.5646  13.7611

     occupation numbers 
     1.0000   1.0000   1.0000   1.0000   0.0000   0.0000   0.0000   0.0000

          k = 0.2357-0.2357-0.2357 (   757 PWs)   bands (ev):

    -4.4661   0.7615   5.1332   5.1332   7.7567   9.5646   9.5646  13.7611

     occupation numbers 
     1.0000   1.0000   1.0000   1.0000   0.0000   0.0000   0.0000   0.0000

          k = 0.2357-0.2357 0.2357 (   757 PWs)   bands (ev):

    -4.4661   0.7615   5.1332   5.1332   7.7567   9.5646   9.5646  13.7611

     occupation numbers 
     1.0000   1.0000   1.0000   1.0000   0.0000   0.0000   0.0000   0.0000

          k = 0.0000 0.0000 0.4714 (   749 PWs)   bands (ev):

    -3.9398   1.1103   3.6996   3.6996   6.7187   7.9728  13.3169  13.3170

     occupation numbers 
     1.0000   1.0000   1.0000   1.0000   0.0010   0.0000   0.0000   0.0000

          k = 0.4714-0.4714-0.0000 (   740 PWs)   bands (ev):

    -2.5695  -0.6526   1.6544   4.0099   7.5579  11.8234  12.5248  13.0967

     occupation numbers 
     1.0000   1.0000   1.0000   1.0000   0.0000   0.0000   0.0000   0.0000

          k =-0.2357 0.2357-0.2357 (   757 PWs)   bands (ev):

    -4.4661   0.7615   5.1332   5.1332   7.7567   9.5646   9.5646  13.7611

     occupation numbers 
     1.0000   1.0000   1.0000   1.0000   0.0000   0.0000   0.0000   0.0000

          k =-0.4714 0.4714-0.0000 (   740 PWs)   bands (ev):

    -2.5695  -0.6526   1.6544   4.0099   7.5579  11.8234  12.5248  13.0967

     occupation numbers 
     1.0000   1.0000   1.0000   1.0000   0.0000   0.0000   0.0000   0.0000

          k = 0.0000 0.0000-0.4714 (   749 PWs)   bands (ev):

    -3.9398   1.1103   3.6996   3.6996   6.7187   7.9728  13.3169  13.3170

     occupation numbers 
     1.0000   1.0000   1.0000   1.0000   0.0010   0.0000   0.0000   0.0000

          k = 0.2357 0.2357-0.2357 (   757 PWs)   bands (ev):

    -4.4661   0.7615   5.1332   5.1332   7.7567   9.5646   9.5646  13.7611

     occupation numbers 
     1.0000   1.0000   1.0000   1.0000   0.0000   0.0000   0.0000   0.0000

          k = 0.0000 0.4714 0.0000 (   749 PWs)   bands (ev):

    -3.9398   1.1103   3.6996   3.6996   6.7187   7.9728  13.3169  13.3169

     occupation numbers 
     1.0000   1.0000   1.0000   1.0000   0.0010   0.0000   0.0000   0.0000

          k = 0.4714-0.0000-0.4714 (   740 PWs)   bands (ev):

    -2.5695  -0.6526   1.6544   4.0099   7.5579  11.8234  12.5248  13.0967

     occupation numbers 
     1.0000   1.0000   1.0000   1.0000   0.0000   0.0000   0.0000   0.0000

          k = 0.4714 0.0000 0.0000 (   749 PWs)   bands (ev):

    -3.9398   1.1103   3.6996   3.6996   6.7187   7.9728  13.3169  13.3169

     occupation numbers 
     1.0000   1.0000   1.0000   1.0000   0.0010   0.0000   0.0000   0.0000

          k = 0.2357 0.2357 0.2357 (   757 PWs)   bands (ev):

    -4.4661   0.7615   5.1332   5.1332   7.7567   9.5646   9.5646  13.7611

     occupation numbers 
     1.0000   1.0000   1.0000   1.0000   0.0000   0.0000   0.0000   0.0000

          k = 0.7071-0.2357-0.2357 (   740 PWs)   bands (ev):

    -2.5695  -0.6526   1.6544   4.0099   7.5579  11.8234  12.5248  13.0967

     occupation numbers 
     1.0000   1.0000   1.0000   1.0000   0.0000   0.0000   0.0000   0.0000

          k =-0.0000 0.4714-0.4714 (   740 PWs)   bands (ev):

    -2.5695  -0.6526   1.6544   4.0099   7.5579  11.8234  12.5248  13.0967

     occupation numbers 
     1.0000   1.0000   1.0000   1.0000   0.0000   0.0000   0.0000   0.0000

          k =-0.2357 0.7071-0.2357 (   740 PWs)   bands (ev):

    -2.5695  -0.6526   1.6544   4.0099   7.5579  11.8234  12.5249  13.0967

     occupation numbers 
     1.0000   1.0000   1.0000   1.0000   0.0000   0.0000   0.0000   0.0000

          k = 0.2357 0.2357-0.7071 (   740 PWs)   bands (ev):

    -2.5695  -0.6526   1.6544   4.0099   7.5579  11.8234  12.5248  13.0967

     occupation numbers 
     1.0000   1.0000   1.0000   1.0000   0.0000   0.0000   0.0000   0.0000

          k =-0.2357-0.2357 0.2357 (   757 PWs)   bands (ev):

    -4.4661   0.7615   5.1332   5.1332   7.7567   9.5646   9.5646  13.7611

     occupation numbers 
     1.0000   1.0000   1.0000   1.0000   0.0000   0.0000   0.0000   0.0000

          k =-0.4714-0.0000 0.4714 (   740 PWs)   bands (ev):

    -2.5695  -0.6526   1.6544   4.0099   7.5579  11.8234  12.5248  13.0967

     occupation numbers 
     1.0000   1.0000   1.0000   1.0000   0.0000   0.0000   0.0000   0.0000

          k = 0.0000-0.4714 0.0000 (   749 PWs)   bands (ev):

    -3.9398   1.1103   3.6996   3.6996   6.7187   7.9728  13.3169  13.3169

     occupation numbers 
     1.0000   1.0000   1.0000   1.0000   0.0010   0.0000   0.0000   0.0000

          k =-0.0000-0.4714 0.4714 (   740 PWs)   bands (ev):

    -2.5695  -0.6526   1.6544   4.0099   7.5579  11.8234  12.5248  13.0967

     occupation numbers 
     1.0000   1.0000   1.0000   1.0000   0.0000   0.0000   0.0000   0.0000

          k =-0.2357-0.2357 0.7071 (   740 PWs)   bands (ev):

    -2.5695  -0.6526   1.6544   4.0099   7.5579  11.8234  12.5248  13.0967

     occupation numbers 
     1.0000   1.0000   1.0000   1.0000   0.0000   0.0000   0.0000   0.0000

          k = 0.2357-0.7071 0.2357 (   740 PWs)   bands (ev):

    -2.5695  -0.6526   1.6544   4.0099   7.5579  11.8234  12.5248  13.0967

     occupation numbers 
     1.0000   1.0000   1.0000   1.0000   0.0000   0.0000   0.0000   0.0000

          k =-0.4714 0.0000 0.0000 (   749 PWs)   bands (ev):

    -3.9398   1.1103   3.6996   3.6996   6.7187   7.9728  13.3169  13.3170

     occupation numbers 
     1.0000   1.0000   1.0000   1.0000   0.0010   0.0000   0.0000   0.0000

          k =-0.7071 0.2357 0.2357 (   740 PWs)   bands (ev):

    -2.5695  -0.6526   1.6544   4.0099   7.5579  11.8234  12.5248  13.0967

     occupation numbers 
     1.0000   1.0000   1.0000   1.0000   0.0000   0.0000   0.0000   0.0000

          k =-0.2357-0.2357-0.2357 (   757 PWs)   bands (ev):

    -4.4661   0.7615   5.1332   5.1332   7.7567   9.5646   9.5646  13.7611

     occupation numbers 
     1.0000   1.0000   1.0000   1.0000   0.0000   0.0000   0.0000   0.0000

     the spin up/dw Fermi energies are     6.4203    6.4203 ev

!    total energy              =     -17.00321550 Ry
     estimated scf accuracy    <          1.3E-10 Ry
     smearing contrib. (-TS)   =      -0.00001982 Ry
     internal energy E=F+TS    =     -17.00319567 Ry

     The total energy is F=E-TS. E is the sum of the following terms:
     one-electron contribution =       4.86110387 Ry
     hartree contribution      =       1.15268249 Ry
     xc contribution           =      -6.22100772 Ry
     ewald contribution        =     -16.79597432 Ry

     total magnetization       =     0.00 Bohr mag/cell
     absolute magnetization    =     0.00 Bohr mag/cell

     convergence has been achieved in   8 iterations

     Forces acting on atoms (cartesian axes, Ry/au):

     atom    1 type  1   force =    -0.00000001   -0.00000004   -0.00000004
     atom    2 type  1   force =     0.00000001    0.00000004    0.00000004
     The non-local contrib.  to forces
     atom    1 type  1   force =     0.00000022   -0.00000037   -0.00000010
     atom    2 type  1   force =    -0.00000024    0.00000026   -0.00000009
     The ionic contribution  to forces
     atom    1 type  1   force =     0.00000000    0.00000000    0.00000000
     atom    2 type  1   force =    -0.00000000   -0.00000000   -0.00000000
     The local contribution  to forces
     atom    1 type  1   force =    -0.00000039    0.00000039    0.00000015
     atom    2 type  1   force =     0.00000042   -0.00000039    0.00000012
     The core correction contribution to forces
     atom    1 type  1   force =    -0.00000002    0.00000002    0.00000001
     atom    2 type  1   force =     0.00000002   -0.00000002    0.00000001
     The Hubbard contrib.    to forces
     atom    1 type  1   force =     0.00000000    0.00000000    0.00000000
     atom    2 type  1   force =     0.00000000    0.00000000    0.00000000
     The SCF correction term to forces
     atom    1 type  1   force =     0.00000017   -0.00000009   -0.00000008
     atom    2 type  1   force =    -0.00000019    0.00000017    0.00000001

     Total force =     0.000000     Total SCF correction =     0.000000
     SCF correction compared to forces is large: reduce conv_thr to get better values


     Computing stress (Cartesian axis) and pressure

          total   stress  (Ry/bohr**3)                   (kbar)     P=       -0.69
  -0.00000469  -0.00000000  -0.00000000           -0.69       -0.00       -0.00
  -0.00000000  -0.00000469   0.00000000           -0.00       -0.69        0.00
  -0.00000000   0.00000000  -0.00000469           -0.00        0.00       -0.69

     kinetic stress (kbar)   2278.52     -0.00     -0.00
                               -0.00   2278.52      0.00
                               -0.00      0.00   2278.52

     local   stress (kbar)   -435.64      0.00     -0.00
                                0.00   -435.64      0.00
                               -0.00      0.00   -435.64

     nonloc. stress (kbar)   1955.79     -0.00     -0.00
                               -0.00   1955.79     -0.00
                               -0.00     -0.00   1955.79

     hartree stress (kbar)    209.15     -0.00      0.00
                               -0.00    209.15     -0.00
                                0.00     -0.00    209.15

     exc-cor stress (kbar)   -153.69      0.00      0.00
                                0.00   -153.69      0.00
                                0.00      0.00   -153.69

     corecor stress (kbar)   -807.31      0.00      0.00
                                0.00   -807.31      0.00
                                0.00      0.00   -807.31

     ewald   stress (kbar)  -3047.51     -0.00      0.00
                               -0.00  -3047.51     -0.00
                                0.00     -0.00  -3047.51

     hubbard stress (kbar)      0.00      0.00      0.00
                                0.00      0.00      0.00
                                0.00      0.00      0.00

     DFT-D   stress (kbar)      0.00      0.00      0.00
                                0.00      0.00      0.00
                                0.00      0.00      0.00

     XDM     stress (kbar)      0.00      0.00      0.00
                                0.00      0.00      0.00
                                0.00      0.00      0.00

     dft-nl  stress (kbar)      0.00      0.00      0.00
                                0.00      0.00      0.00
                                0.00      0.00      0.00

     TS-vdW  stress (kbar)      0.00      0.00      0.00
                                0.00      0.00      0.00
                                0.00      0.00      0.00

     MDB     stress (kbar)      0.00      0.00      0.00
                                0.00      0.00      0.00
                                0.00      0.00      0.00

     3D-RISM stress (kbar)      0.00      0.00      0.00
                                0.00      0.00      0.00
                                0.00      0.00      0.00


     Writing all to output data dir ./out/si_lda_trial.save/ :
     XML data file, charge density, pseudopotentials, collected wavefunctions

     init_run     :      0.22s CPU      0.25s WALL (       1 calls)
     electrons    :      2.52s CPU      2.56s WALL (       1 calls)
     forces       :      0.05s CPU      0.06s WALL (       1 calls)
     stress       :      0.28s CPU      0.28s WALL (       1 calls)

     Called by init_run:
     wfcinit      :      0.12s CPU      0.13s WALL (       1 calls)
     wfcinit:atom :      0.00s CPU      0.00s WALL (      54 calls)
     wfcinit:wfcr :      0.10s CPU      0.11s WALL (      54 calls)
     potinit      :      0.01s CPU      0.01s WALL (       1 calls)
     hinit0       :      0.08s CPU      0.09s WALL (       1 calls)

     Called by electrons:
     c_bands      :      2.19s CPU      2.23s WALL (       9 calls)
     sum_band     :      0.30s CPU      0.30s WALL (       9 calls)
     v_of_rho     :      0.02s CPU      0.02s WALL (       9 calls)
     v_h          :      0.00s CPU      0.00s WALL (       9 calls)
     v_xc         :      0.02s CPU      0.02s WALL (      11 calls)
     mix_rho      :      0.01s CPU      0.01s WALL (       9 calls)

     Called by c_bands:
     init_us_2    :      0.16s CPU      0.16s WALL (    1134 calls)
     cegterg      :      1.87s CPU      1.91s WALL (     486 calls)

     Called by sum_band:
     sum_band:wei :      0.00s CPU      0.00s WALL (       9 calls)
     sum_band:loo :      0.30s CPU      0.30s WALL (       9 calls)
     sum_band:buf :      0.00s CPU      0.00s WALL (     486 calls)
     sum_band:ini :      0.07s CPU      0.07s WALL (     486 calls)

     Called by *egterg:
     cdiaghg      :      0.08s CPU      0.08s WALL (    1789 calls)
     cegterg:over :      0.12s CPU      0.12s WALL (    1357 calls)
     cegterg:upda :      0.06s CPU      0.06s WALL (    1357 calls)
     cegterg:last :      0.10s CPU      0.10s WALL (    1015 calls)
     h_psi        :      1.53s CPU      1.57s WALL (    1897 calls)
     g_psi        :      0.01s CPU      0.01s WALL (    1357 calls)

     Called by h_psi:
     h_psi:calbec :      0.23s CPU      0.24s WALL (    1897 calls)
     vloc_psi     :      1.08s CPU      1.10s WALL (    1897 calls)
     add_vuspsi   :      0.21s CPU      0.21s WALL (    1897 calls)

     General routines
     calbec       :      0.28s CPU      0.29s WALL (    2167 calls)
     fft          :      0.04s CPU      0.04s WALL (      53 calls)
     ffts         :      0.00s CPU      0.00s WALL (      18 calls)
     fftw         :      1.07s CPU      1.09s WALL (   24894 calls)

     Parallel routines

     PWSCF        :      3.10s CPU      3.20s WALL


   This run was terminated on:   8:20:26  16Sep2024            

=------------------------------------------------------------------------------=
   JOB DONE.
=------------------------------------------------------------------------------=
