
     Program PROJWFC v.7.3.1 starts on 13Aug2024 at  8:30: 0 

     This program is part of the open-source Quantum ESPRESSO suite
     for quantum simulation of materials; please cite
         "P. Giannozzi et al., J. Phys.:Condens. Matter 21 395502 (2009);
         "P. Giannozzi et al., J. Phys.:Condens. Matter 29 465901 (2017);
         "P. Giannozzi et al., J. Chem. Phys. 152 154105 (2020);
          URL http://www.quantum-espresso.org", 
     in publications or presentations arising from this work. More details at
     http://www.quantum-espresso.org/quote

     Parallel version (MPI), running on     1 processors

     MPI processes distributed on     1 nodes
     5129 MiB available memory on the printing compute node when the environment starts


     Reading xml data from directory:

     ./out/si_lda.save/
     Message from routine volume:
     axis vectors are left-handed

     IMPORTANT: XC functional enforced from input :
     Exchange-correlation= PW
                           (   1   4   0   0   0   0   0)
     Any further DFT definition will be discarded
     Please, verify this is what you really want


     G-vector sticks info
     --------------------
     sticks:   dense  smooth     PW     G-vecs:    dense   smooth      PW
     Sum         859     433    151                16889     5985    1139

     Using Slab Decomposition


     Gaussian broadening (read from input): ngauss,degauss=   0    0.010000


     Calling projwave .... 
     Subspace diagonalization in iterative solution of the eigenvalue problem:
     a serial algorithm will be used


  Problem Sizes 
  natomwfc =            8
  nbnd     =            4
  nkstot   =           56
  npwx     =          763
  nkb      =           36


     Atomic states used for projection
     (read from pseudopotential files):

     state #   1: atom   1 (Si ), wfc  1 (l=0 m= 1)
     state #   2: atom   1 (Si ), wfc  2 (l=1 m= 1)
     state #   3: atom   1 (Si ), wfc  2 (l=1 m= 2)
     state #   4: atom   1 (Si ), wfc  2 (l=1 m= 3)
     state #   5: atom   2 (Si ), wfc  1 (l=0 m= 1)
     state #   6: atom   2 (Si ), wfc  2 (l=1 m= 1)
     state #   7: atom   2 (Si ), wfc  2 (l=1 m= 2)
     state #   8: atom   2 (Si ), wfc  2 (l=1 m= 3)

 k =   0.0000000000  0.0000000000  0.0000000000
==== e(   1) =    -5.92608 eV ==== 
     psi = 0.498*[#   1]+0.498*[#   5]
    |psi|^2 = 0.996
==== e(   2) =     6.03403 eV ==== 
     psi = 0.155*[#   2]+0.155*[#   3]+0.155*[#   4]+0.155*[#   6]+0.155*[#   7]
          +0.155*[#   8]
    |psi|^2 = 0.930
==== e(   3) =     6.03403 eV ==== 
     psi = 0.081*[#   2]+0.081*[#   3]+0.081*[#   4]+0.081*[#   6]+0.081*[#   7]
          +0.081*[#   8]
    |psi|^2 = 0.485
==== e(   4) =     6.03403 eV ==== 
     psi = 0.133*[#   2]+0.133*[#   3]+0.133*[#   4]+0.133*[#   6]+0.133*[#   7]
          +0.133*[#   8]
    |psi|^2 = 0.796

 k =  -0.0642824347  0.0642824347  0.0642824347
==== e(   1) =    -5.81791 eV ==== 
     psi = 0.470*[#   1]+0.470*[#   5]+0.009*[#   2]+0.009*[#   3]+0.009*[#   4]
          +0.009*[#   6]+0.009*[#   7]+0.009*[#   8]
    |psi|^2 = 0.996
==== e(   2) =     5.03383 eV ==== 
     psi = 0.097*[#   2]+0.097*[#   3]+0.097*[#   4]+0.097*[#   6]+0.097*[#   7]
          +0.097*[#   8]+0.067*[#   1]+0.067*[#   5]
    |psi|^2 = 0.713
==== e(   3) =     5.86612 eV ==== 
     psi = 0.183*[#   2]+0.183*[#   3]+0.183*[#   4]+0.183*[#   6]+0.183*[#   7]
          +0.183*[#   8]
    |psi|^2 = 1.097
==== e(   4) =     5.86612 eV ==== 
     psi = 0.126*[#   2]+0.126*[#   3]+0.126*[#   4]+0.126*[#   6]+0.126*[#   7]
          +0.126*[#   8]
    |psi|^2 = 0.754

 k =  -0.1285648693  0.1285648693  0.1285648693
==== e(   1) =    -5.49751 eV ==== 
     psi = 0.415*[#   1]+0.415*[#   5]+0.028*[#   2]+0.028*[#   3]+0.028*[#   4]
          +0.028*[#   6]+0.028*[#   7]+0.028*[#   8]
    |psi|^2 = 0.996
==== e(   2) =     3.34849 eV ==== 
     psi = 0.119*[#   1]+0.119*[#   5]+0.092*[#   2]+0.092*[#   3]+0.092*[#   4]
          +0.092*[#   6]+0.092*[#   7]+0.092*[#   8]
    |psi|^2 = 0.791
==== e(   3) =     5.52490 eV ==== 
     psi = 0.198*[#   2]+0.198*[#   3]+0.198*[#   4]+0.198*[#   6]+0.198*[#   7]
          +0.198*[#   8]
    |psi|^2 = 1.187
==== e(   4) =     5.52490 eV ==== 
     psi = 0.102*[#   2]+0.102*[#   3]+0.102*[#   4]+0.102*[#   6]+0.102*[#   7]
          +0.102*[#   8]
    |psi|^2 = 0.611

 k =  -0.1928473040  0.1928473040  0.1928473040
==== e(   1) =    -4.98117 eV ==== 
     psi = 0.373*[#   1]+0.373*[#   5]+0.042*[#   2]+0.042*[#   3]+0.042*[#   4]
          +0.042*[#   6]+0.042*[#   7]+0.042*[#   8]
    |psi|^2 = 0.995
==== e(   2) =     1.68599 eV ==== 
     psi = 0.145*[#   1]+0.145*[#   5]+0.091*[#   2]+0.091*[#   3]+0.091*[#   4]
          +0.091*[#   6]+0.091*[#   7]+0.091*[#   8]
    |psi|^2 = 0.838
==== e(   3) =     5.20185 eV ==== 
     psi = 0.182*[#   2]+0.182*[#   3]+0.182*[#   4]+0.182*[#   6]+0.182*[#   7]
          +0.182*[#   8]
    |psi|^2 = 1.095
==== e(   4) =     5.20185 eV ==== 
     psi = 0.113*[#   2]+0.113*[#   3]+0.113*[#   4]+0.113*[#   6]+0.113*[#   7]
          +0.113*[#   8]
    |psi|^2 = 0.679

 k =  -0.2571297386  0.2571297386  0.2571297386
==== e(   1) =    -4.31933 eV ==== 
     psi = 0.358*[#   1]+0.358*[#   5]+0.047*[#   2]+0.047*[#   3]+0.047*[#   4]
          +0.047*[#   6]+0.047*[#   7]+0.047*[#   8]
    |psi|^2 = 0.995
==== e(   2) =     0.22749 eV ==== 
     psi = 0.148*[#   1]+0.148*[#   5]+0.093*[#   2]+0.093*[#   3]+0.093*[#   4]
          +0.093*[#   6]+0.093*[#   7]+0.093*[#   8]
    |psi|^2 = 0.851
==== e(   3) =     4.97098 eV ==== 
     psi = 0.200*[#   2]+0.200*[#   3]+0.200*[#   4]+0.200*[#   6]+0.200*[#   7]
          +0.200*[#   8]
    |psi|^2 = 1.200
==== e(   4) =     4.97098 eV ==== 
     psi = 0.096*[#   2]+0.096*[#   3]+0.096*[#   4]+0.096*[#   6]+0.096*[#   7]
          +0.096*[#   8]
    |psi|^2 = 0.576

 k =  -0.3214121733  0.3214121733  0.3214121733
==== e(   1) =    -3.70518 eV ==== 
     psi = 0.375*[#   1]+0.375*[#   5]+0.041*[#   2]+0.041*[#   3]+0.041*[#   4]
          +0.041*[#   6]+0.041*[#   7]+0.041*[#   8]
    |psi|^2 = 0.996
==== e(   2) =    -0.79235 eV ==== 
     psi = 0.125*[#   1]+0.125*[#   5]+0.096*[#   2]+0.096*[#   3]+0.096*[#   4]
          +0.096*[#   6]+0.096*[#   7]+0.096*[#   8]
    |psi|^2 = 0.823
==== e(   3) =     4.85346 eV ==== 
     psi = 0.180*[#   2]+0.180*[#   3]+0.180*[#   4]+0.180*[#   6]+0.180*[#   7]
          +0.180*[#   8]
    |psi|^2 = 1.082
==== e(   4) =     4.85346 eV ==== 
     psi = 0.121*[#   2]+0.121*[#   3]+0.121*[#   4]+0.121*[#   6]+0.121*[#   7]
          +0.121*[#   8]
    |psi|^2 = 0.727

 k =   0.0000000000  0.0000000000  0.1285648693
==== e(   1) =    -5.78166 eV ==== 
     psi = 0.461*[#   1]+0.461*[#   5]+0.012*[#   2]+0.012*[#   3]+0.012*[#   4]
          +0.012*[#   6]+0.012*[#   7]+0.012*[#   8]
    |psi|^2 = 0.996
==== e(   2) =     5.21336 eV ==== 
     psi = 0.099*[#   1]+0.099*[#   5]
    |psi|^2 = 0.197
==== e(   3) =     5.53763 eV ==== 
     psi = 0.291*[#   2]+0.291*[#   3]+0.291*[#   4]+0.291*[#   6]+0.291*[#   7]
          +0.291*[#   8]
    |psi|^2 = 1.747
==== e(   4) =     5.53763 eV ==== 
     psi = 0.162*[#   2]+0.162*[#   3]+0.162*[#   4]+0.162*[#   6]+0.162*[#   7]
          +0.162*[#   8]
    |psi|^2 = 0.973

 k =  -0.0642824347  0.0642824347  0.1928473040
==== e(   1) =    -5.53126 eV ==== 
     psi = 0.418*[#   1]+0.418*[#   5]+0.027*[#   2]+0.027*[#   3]+0.027*[#   4]
          +0.027*[#   6]+0.027*[#   7]+0.027*[#   8]
    |psi|^2 = 0.996
==== e(   2) =     3.84960 eV ==== 
     psi = 0.122*[#   1]+0.122*[#   5]+0.065*[#   2]+0.065*[#   3]+0.065*[#   4]
          +0.065*[#   6]+0.065*[#   7]+0.065*[#   8]
    |psi|^2 = 0.637
==== e(   3) =     5.13962 eV ==== 
     psi = 0.223*[#   2]+0.223*[#   3]+0.223*[#   4]+0.223*[#   6]+0.223*[#   7]
          +0.223*[#   8]
    |psi|^2 = 1.338
==== e(   4) =     5.31961 eV ==== 
     psi = 0.114*[#   2]+0.114*[#   3]+0.114*[#   4]+0.114*[#   6]+0.114*[#   7]
          +0.114*[#   8]+0.032*[#   1]+0.032*[#   5]
    |psi|^2 = 0.749

 k =  -0.1285648693  0.1285648693  0.2571297386
==== e(   1) =    -5.07775 eV ==== 
     psi = 0.375*[#   1]+0.375*[#   5]+0.041*[#   2]+0.041*[#   3]+0.041*[#   4]
          +0.041*[#   6]+0.041*[#   7]+0.041*[#   8]
    |psi|^2 = 0.995
==== e(   2) =     2.22492 eV ==== 
     psi = 0.148*[#   1]+0.148*[#   5]+0.080*[#   2]+0.080*[#   3]+0.080*[#   4]
          +0.080*[#   6]+0.080*[#   7]+0.080*[#   8]
    |psi|^2 = 0.774
==== e(   3) =     4.82081 eV ==== 
     psi = 0.206*[#   2]+0.206*[#   3]+0.206*[#   4]+0.206*[#   6]+0.206*[#   7]
          +0.206*[#   8]
    |psi|^2 = 1.237
==== e(   4) =     4.94312 eV ==== 
     psi = 0.094*[#   2]+0.094*[#   3]+0.094*[#   4]+0.094*[#   6]+0.094*[#   7]
          +0.094*[#   8]+0.047*[#   1]+0.047*[#   5]
    |psi|^2 = 0.659

 k =  -0.1928473040  0.1928473040  0.3214121733
==== e(   1) =    -4.45484 eV ==== 
     psi = 0.352*[#   1]+0.352*[#   5]+0.048*[#   2]+0.048*[#   3]+0.048*[#   4]
          +0.048*[#   6]+0.048*[#   7]+0.048*[#   8]
    |psi|^2 = 0.995
==== e(   2) =     0.71369 eV ==== 
     psi = 0.156*[#   1]+0.156*[#   5]+0.087*[#   2]+0.087*[#   3]+0.087*[#   4]
          +0.087*[#   6]+0.087*[#   7]+0.087*[#   8]
    |psi|^2 = 0.832
==== e(   3) =     4.55953 eV ==== 
     psi = 0.087*[#   2]+0.087*[#   3]+0.087*[#   4]+0.087*[#   6]+0.087*[#   7]
          +0.087*[#   8]+0.053*[#   1]+0.053*[#   5]
    |psi|^2 = 0.630
==== e(   4) =     4.63493 eV ==== 
     psi = 0.203*[#   2]+0.203*[#   3]+0.203*[#   4]+0.203*[#   6]+0.203*[#   7]
          +0.203*[#   8]
    |psi|^2 = 1.217

 k =  -0.2571297386  0.2571297386  0.3856946079
==== e(   1) =    -3.78211 eV ==== 
     psi = 0.359*[#   1]+0.359*[#   5]+0.046*[#   2]+0.046*[#   3]+0.046*[#   4]
          +0.046*[#   6]+0.046*[#   7]+0.046*[#   8]
    |psi|^2 = 0.996
==== e(   2) =    -0.48335 eV ==== 
     psi = 0.142*[#   1]+0.142*[#   5]+0.092*[#   2]+0.092*[#   3]+0.092*[#   4]
          +0.092*[#   6]+0.092*[#   7]+0.092*[#   8]
    |psi|^2 = 0.835
==== e(   3) =     4.26057 eV ==== 
     psi = 0.089*[#   2]+0.089*[#   3]+0.089*[#   4]+0.089*[#   6]+0.089*[#   7]
          +0.089*[#   8]+0.054*[#   1]+0.054*[#   5]
    |psi|^2 = 0.640
==== e(   4) =     4.59583 eV ==== 
     psi = 0.205*[#   2]+0.205*[#   3]+0.205*[#   4]+0.205*[#   6]+0.205*[#   7]
          +0.205*[#   8]
    |psi|^2 = 1.232

 k =   0.3856946079 -0.3856946079 -0.2571297386
==== e(   1) =    -3.50980 eV ==== 
     psi = 0.374*[#   1]+0.374*[#   5]+0.041*[#   2]+0.041*[#   3]+0.041*[#   4]
          +0.041*[#   6]+0.041*[#   7]+0.041*[#   8]
    |psi|^2 = 0.997
==== e(   2) =    -0.88755 eV ==== 
     psi = 0.125*[#   1]+0.125*[#   5]+0.093*[#   2]+0.093*[#   3]+0.093*[#   4]
          +0.093*[#   6]+0.093*[#   7]+0.093*[#   8]
    |psi|^2 = 0.810
==== e(   3) =     4.08204 eV ==== 
     psi = 0.099*[#   2]+0.099*[#   3]+0.099*[#   4]+0.099*[#   6]+0.099*[#   7]
          +0.099*[#   8]+0.052*[#   1]+0.052*[#   5]
    |psi|^2 = 0.700
==== e(   4) =     4.69866 eV ==== 
     psi = 0.205*[#   2]+0.205*[#   3]+0.205*[#   4]+0.205*[#   6]+0.205*[#   7]
          +0.205*[#   8]
    |psi|^2 = 1.227

 k =   0.3214121733 -0.3214121733 -0.1928473040
==== e(   1) =    -3.99695 eV ==== 
     psi = 0.354*[#   1]+0.354*[#   5]+0.048*[#   2]+0.048*[#   3]+0.048*[#   4]
          +0.048*[#   6]+0.048*[#   7]+0.048*[#   8]
    |psi|^2 = 0.996
==== e(   2) =    -0.13434 eV ==== 
     psi = 0.149*[#   1]+0.149*[#   5]+0.090*[#   2]+0.090*[#   3]+0.090*[#   4]
          +0.090*[#   6]+0.090*[#   7]+0.090*[#   8]
    |psi|^2 = 0.839
==== e(   3) =     4.04500 eV ==== 
     psi = 0.104*[#   2]+0.104*[#   3]+0.104*[#   4]+0.104*[#   6]+0.104*[#   7]
          +0.104*[#   8]+0.048*[#   1]+0.048*[#   5]
    |psi|^2 = 0.722
==== e(   4) =     4.92709 eV ==== 
     psi = 0.200*[#   2]+0.200*[#   3]+0.200*[#   4]+0.200*[#   6]+0.200*[#   7]
          +0.200*[#   8]
    |psi|^2 = 1.199

 k =   0.2571297386 -0.2571297386 -0.1285648693
==== e(   1) =    -4.67872 eV ==== 
     psi = 0.358*[#   1]+0.358*[#   5]+0.047*[#   2]+0.047*[#   3]+0.047*[#   4]
          +0.047*[#   6]+0.047*[#   7]+0.047*[#   8]
    |psi|^2 = 0.995
==== e(   2) =     1.19748 eV ==== 
     psi = 0.155*[#   1]+0.155*[#   5]+0.091*[#   2]+0.091*[#   3]+0.091*[#   4]
          +0.091*[#   6]+0.091*[#   7]+0.091*[#   8]
    |psi|^2 = 0.857
==== e(   3) =     4.16576 eV ==== 
     psi = 0.105*[#   2]+0.105*[#   3]+0.105*[#   4]+0.105*[#   6]+0.105*[#   7]
          +0.105*[#   8]+0.043*[#   1]+0.043*[#   5]
    |psi|^2 = 0.713
==== e(   4) =     5.25201 eV ==== 
     psi = 0.199*[#   2]+0.199*[#   3]+0.199*[#   4]+0.199*[#   6]+0.199*[#   7]
          +0.199*[#   8]
    |psi|^2 = 1.197

 k =   0.1928473040 -0.1928473040 -0.0642824347
==== e(   1) =    -5.25124 eV ==== 
     psi = 0.388*[#   1]+0.388*[#   5]+0.037*[#   2]+0.037*[#   3]+0.037*[#   4]
          +0.037*[#   6]+0.037*[#   7]+0.037*[#   8]
    |psi|^2 = 0.996
==== e(   2) =     2.75153 eV ==== 
     psi = 0.140*[#   1]+0.140*[#   5]+0.097*[#   2]+0.097*[#   3]+0.097*[#   4]
          +0.097*[#   6]+0.097*[#   7]+0.097*[#   8]
    |psi|^2 = 0.861
==== e(   3) =     4.46300 eV ==== 
     psi = 0.098*[#   2]+0.098*[#   3]+0.098*[#   4]+0.098*[#   6]+0.098*[#   7]
          +0.098*[#   8]+0.034*[#   1]+0.034*[#   5]
    |psi|^2 = 0.657
==== e(   4) =     5.61706 eV ==== 
     psi = 0.203*[#   2]+0.203*[#   3]+0.203*[#   4]+0.203*[#   6]+0.203*[#   7]
          +0.203*[#   8]
    |psi|^2 = 1.217

 k =   0.1285648693 -0.1285648693 -0.0000000000
==== e(   1) =    -5.63870 eV ==== 
     psi = 0.434*[#   1]+0.434*[#   5]+0.021*[#   2]+0.021*[#   3]+0.021*[#   4]
          +0.021*[#   6]+0.021*[#   7]+0.021*[#   8]
    |psi|^2 = 0.996
==== e(   2) =     4.22635 eV ==== 
     psi = 0.112*[#   2]+0.112*[#   3]+0.112*[#   4]+0.112*[#   6]+0.112*[#   7]
          +0.112*[#   8]+0.110*[#   1]+0.110*[#   5]
    |psi|^2 = 0.894
==== e(   3) =     5.03187 eV ==== 
     psi = 0.069*[#   2]+0.069*[#   3]+0.069*[#   4]+0.069*[#   6]+0.069*[#   7]
          +0.069*[#   8]+0.015*[#   1]+0.015*[#   5]
    |psi|^2 = 0.448
==== e(   4) =     5.89223 eV ==== 
     psi = 0.213*[#   2]+0.213*[#   3]+0.213*[#   4]+0.213*[#   6]+0.213*[#   7]
          +0.213*[#   8]
    |psi|^2 = 1.276

 k =   0.0000000000  0.0000000000  0.2571297386
==== e(   1) =    -5.35108 eV ==== 
     psi = 0.393*[#   1]+0.393*[#   5]+0.035*[#   2]+0.035*[#   3]+0.035*[#   4]
          +0.035*[#   6]+0.035*[#   7]+0.035*[#   8]
    |psi|^2 = 0.996
==== e(   2) =     3.70834 eV ==== 
     psi = 0.180*[#   1]+0.180*[#   5]
    |psi|^2 = 0.360
==== e(   3) =     4.70418 eV ==== 
     psi = 0.268*[#   2]+0.268*[#   3]+0.268*[#   4]+0.268*[#   6]+0.268*[#   7]
          +0.268*[#   8]
    |psi|^2 = 1.606
==== e(   4) =     4.70418 eV ==== 
     psi = 0.164*[#   2]+0.164*[#   3]+0.164*[#   4]+0.164*[#   6]+0.164*[#   7]
          +0.164*[#   8]
    |psi|^2 = 0.985

 k =  -0.0642824347  0.0642824347  0.3214121733
==== e(   1) =    -4.96391 eV ==== 
     psi = 0.361*[#   1]+0.361*[#   5]+0.046*[#   2]+0.046*[#   3]+0.046*[#   4]
          +0.046*[#   6]+0.046*[#   7]+0.046*[#   8]
    |psi|^2 = 0.995
==== e(   2) =     2.54868 eV ==== 
     psi = 0.184*[#   1]+0.184*[#   5]+0.035*[#   2]+0.035*[#   3]+0.035*[#   4]
          +0.035*[#   6]+0.035*[#   7]+0.035*[#   8]
    |psi|^2 = 0.579
==== e(   3) =     4.27947 eV ==== 
     psi = 0.185*[#   2]+0.185*[#   3]+0.185*[#   4]+0.185*[#   6]+0.185*[#   7]
          +0.185*[#   8]+0.034*[#   1]+0.034*[#   5]
    |psi|^2 = 1.176
==== e(   4) =     4.36067 eV ==== 
     psi = 0.181*[#   2]+0.181*[#   3]+0.181*[#   4]+0.181*[#   6]+0.181*[#   7]
          +0.181*[#   8]
    |psi|^2 = 1.089

 k =  -0.1285648693  0.1285648693  0.3856946079
==== e(   1) =    -4.39222 eV ==== 
     psi = 0.338*[#   1]+0.338*[#   5]+0.053*[#   2]+0.053*[#   3]+0.053*[#   4]
          +0.053*[#   6]+0.053*[#   7]+0.053*[#   8]
    |psi|^2 = 0.995
==== e(   2) =     1.17317 eV ==== 
     psi = 0.186*[#   1]+0.186*[#   5]+0.061*[#   2]+0.061*[#   3]+0.061*[#   4]
          +0.061*[#   6]+0.061*[#   7]+0.061*[#   8]
    |psi|^2 = 0.738
==== e(   3) =     3.74030 eV ==== 
     psi = 0.125*[#   2]+0.125*[#   3]+0.125*[#   4]+0.125*[#   6]+0.125*[#   7]
          +0.125*[#   8]+0.060*[#   1]+0.060*[#   5]
    |psi|^2 = 0.872
==== e(   4) =     4.16448 eV ==== 
     psi = 0.193*[#   2]+0.193*[#   3]+0.193*[#   4]+0.193*[#   6]+0.193*[#   7]
          +0.193*[#   8]
    |psi|^2 = 1.160

 k =  -0.1928473040  0.1928473040  0.4499770426
==== e(   1) =    -3.70992 eV ==== 
     psi = 0.336*[#   1]+0.336*[#   5]+0.054*[#   2]+0.054*[#   3]+0.054*[#   4]
          +0.054*[#   6]+0.054*[#   7]+0.054*[#   8]
    |psi|^2 = 0.995
==== e(   2) =    -0.06894 eV ==== 
     psi = 0.177*[#   1]+0.177*[#   5]+0.076*[#   2]+0.076*[#   3]+0.076*[#   4]
          +0.076*[#   6]+0.076*[#   7]+0.076*[#   8]
    |psi|^2 = 0.807
==== e(   3) =     3.26014 eV ==== 
     psi = 0.104*[#   2]+0.104*[#   3]+0.104*[#   4]+0.104*[#   6]+0.104*[#   7]
          +0.104*[#   8]+0.067*[#   1]+0.067*[#   5]
    |psi|^2 = 0.757
==== e(   4) =     4.13315 eV ==== 
     psi = 0.200*[#   2]+0.200*[#   3]+0.200*[#   4]+0.200*[#   6]+0.200*[#   7]
          +0.200*[#   8]
    |psi|^2 = 1.197

 k =   0.4499770426 -0.4499770426 -0.1928473040
==== e(   1) =    -3.22336 eV ==== 
     psi = 0.354*[#   1]+0.354*[#   5]+0.048*[#   2]+0.048*[#   3]+0.048*[#   4]
          +0.048*[#   6]+0.048*[#   7]+0.048*[#   8]
    |psi|^2 = 0.996
==== e(   2) =    -0.78353 eV ==== 
     psi = 0.153*[#   1]+0.153*[#   5]+0.082*[#   2]+0.082*[#   3]+0.082*[#   4]
          +0.082*[#   6]+0.082*[#   7]+0.082*[#   8]
    |psi|^2 = 0.801
==== e(   3) =     2.92237 eV ==== 
     psi = 0.106*[#   2]+0.106*[#   3]+0.106*[#   4]+0.106*[#   6]+0.106*[#   7]
          +0.106*[#   8]+0.067*[#   1]+0.067*[#   5]
    |psi|^2 = 0.770
==== e(   4) =     4.26553 eV ==== 
     psi = 0.201*[#   2]+0.201*[#   3]+0.201*[#   4]+0.201*[#   6]+0.201*[#   7]
          +0.201*[#   8]
    |psi|^2 = 1.205

 k =   0.3856946079 -0.3856946079 -0.1285648693
==== e(   1) =    -3.51092 eV ==== 
     psi = 0.343*[#   1]+0.343*[#   5]+0.052*[#   2]+0.052*[#   3]+0.052*[#   4]
          +0.052*[#   6]+0.052*[#   7]+0.052*[#   8]
    |psi|^2 = 0.996
==== e(   2) =    -0.36922 eV ==== 
     psi = 0.167*[#   1]+0.167*[#   5]+0.080*[#   2]+0.080*[#   3]+0.080*[#   4]
          +0.080*[#   6]+0.080*[#   7]+0.080*[#   8]
    |psi|^2 = 0.815
==== e(   3) =     2.76727 eV ==== 
     psi = 0.114*[#   2]+0.114*[#   3]+0.114*[#   4]+0.114*[#   6]+0.114*[#   7]
          +0.114*[#   8]+0.063*[#   1]+0.063*[#   5]
    |psi|^2 = 0.810
==== e(   4) =     4.54519 eV ==== 
     psi = 0.195*[#   2]+0.195*[#   3]+0.195*[#   4]+0.195*[#   6]+0.195*[#   7]
          +0.195*[#   8]
    |psi|^2 = 1.169

 k =   0.3214121733 -0.3214121733 -0.0642824347
==== e(   1) =    -4.18557 eV ==== 
     psi = 0.339*[#   1]+0.339*[#   5]+0.053*[#   2]+0.053*[#   3]+0.053*[#   4]
          +0.053*[#   6]+0.053*[#   7]+0.053*[#   8]
    |psi|^2 = 0.995
==== e(   2) =     0.75290 eV ==== 
     psi = 0.181*[#   1]+0.181*[#   5]+0.083*[#   2]+0.083*[#   3]+0.083*[#   4]
          +0.083*[#   6]+0.083*[#   7]+0.083*[#   8]
    |psi|^2 = 0.857
==== e(   3) =     2.84708 eV ==== 
     psi = 0.112*[#   2]+0.112*[#   3]+0.112*[#   4]+0.112*[#   6]+0.112*[#   7]
          +0.112*[#   8]+0.054*[#   1]+0.054*[#   5]
    |psi|^2 = 0.780
==== e(   4) =     4.93425 eV ==== 
     psi = 0.194*[#   2]+0.194*[#   3]+0.194*[#   4]+0.194*[#   6]+0.194*[#   7]
          +0.194*[#   8]
    |psi|^2 = 1.163

 k =   0.2571297386 -0.2571297386  0.0000000000
==== e(   1) =    -4.80323 eV ==== 
     psi = 0.358*[#   1]+0.358*[#   5]+0.047*[#   2]+0.047*[#   3]+0.047*[#   4]
          +0.047*[#   6]+0.047*[#   7]+0.047*[#   8]
    |psi|^2 = 0.995
==== e(   2) =     1.94751 eV ==== 
     psi = 0.175*[#   1]+0.175*[#   5]+0.091*[#   2]+0.091*[#   3]+0.091*[#   4]
          +0.091*[#   6]+0.091*[#   7]+0.091*[#   8]
    |psi|^2 = 0.894
==== e(   3) =     3.33160 eV ==== 
     psi = 0.101*[#   2]+0.101*[#   3]+0.101*[#   4]+0.101*[#   6]+0.101*[#   7]
          +0.101*[#   8]+0.044*[#   1]+0.044*[#   5]
    |psi|^2 = 0.694
==== e(   4) =     5.34984 eV ==== 
     psi = 0.198*[#   2]+0.198*[#   3]+0.198*[#   4]+0.198*[#   6]+0.198*[#   7]
          +0.198*[#   8]
    |psi|^2 = 1.188

 k =   0.0000000000  0.0000000000  0.3856946079
==== e(   1) =    -4.64285 eV ==== 
     psi = 0.340*[#   1]+0.340*[#   5]+0.053*[#   2]+0.053*[#   3]+0.053*[#   4]
          +0.053*[#   6]+0.053*[#   7]+0.053*[#   8]
    |psi|^2 = 0.995
==== e(   2) =     2.09051 eV ==== 
     psi = 0.224*[#   1]+0.224*[#   5]
    |psi|^2 = 0.448
==== e(   3) =     3.98194 eV ==== 
     psi = 0.255*[#   2]+0.255*[#   3]+0.255*[#   4]+0.255*[#   6]+0.255*[#   7]
          +0.255*[#   8]
    |psi|^2 = 1.531
==== e(   4) =     3.98194 eV ==== 
     psi = 0.165*[#   2]+0.165*[#   3]+0.165*[#   4]+0.165*[#   6]+0.165*[#   7]
          +0.165*[#   8]
    |psi|^2 = 0.991

 k =  -0.0642824347  0.0642824347  0.4499770426
==== e(   1) =    -4.12908 eV ==== 
     psi = 0.321*[#   1]+0.321*[#   5]+0.059*[#   2]+0.059*[#   3]+0.059*[#   4]
          +0.059*[#   6]+0.059*[#   7]+0.059*[#   8]
    |psi|^2 = 0.995
==== e(   2) =     1.13685 eV ==== 
     psi = 0.234*[#   1]+0.234*[#   5]+0.014*[#   2]+0.014*[#   3]+0.014*[#   4]
          +0.014*[#   6]+0.014*[#   7]+0.014*[#   8]
    |psi|^2 = 0.549
==== e(   3) =     3.43473 eV ==== 
     psi = 0.213*[#   2]+0.213*[#   3]+0.213*[#   4]+0.213*[#   6]+0.213*[#   7]
          +0.213*[#   8]+0.018*[#   1]+0.018*[#   5]
    |psi|^2 = 1.313
==== e(   4) =     3.75039 eV ==== 
     psi = 0.172*[#   2]+0.172*[#   3]+0.172*[#   4]+0.172*[#   6]+0.172*[#   7]
          +0.172*[#   8]
    |psi|^2 = 1.030

 k =  -0.1285648693  0.1285648693  0.5142594772
==== e(   1) =    -3.46822 eV ==== 
     psi = 0.314*[#   1]+0.314*[#   5]+0.061*[#   2]+0.061*[#   3]+0.061*[#   4]
          +0.061*[#   6]+0.061*[#   7]+0.061*[#   8]
    |psi|^2 = 0.994
==== e(   2) =     0.10652 eV ==== 
     psi = 0.234*[#   1]+0.234*[#   5]+0.035*[#   2]+0.035*[#   3]+0.035*[#   4]
          +0.035*[#   6]+0.035*[#   7]+0.035*[#   8]
    |psi|^2 = 0.678
==== e(   3) =     2.69636 eV ==== 
     psi = 0.164*[#   2]+0.164*[#   3]+0.164*[#   4]+0.164*[#   6]+0.164*[#   7]
          +0.164*[#   8]+0.030*[#   1]+0.030*[#   5]
    |psi|^2 = 1.046
==== e(   4) =     3.68957 eV ==== 
     psi = 0.181*[#   2]+0.181*[#   3]+0.181*[#   4]+0.181*[#   6]+0.181*[#   7]
          +0.181*[#   8]
    |psi|^2 = 1.088

 k =   0.5142594772 -0.5142594772 -0.1285648693
==== e(   1) =    -2.85034 eV ==== 
     psi = 0.326*[#   1]+0.326*[#   5]+0.057*[#   2]+0.057*[#   3]+0.057*[#   4]
          +0.057*[#   6]+0.057*[#   7]+0.057*[#   8]
    |psi|^2 = 0.995
==== e(   2) =    -0.69953 eV ==== 
     psi = 0.218*[#   1]+0.218*[#   5]+0.052*[#   2]+0.052*[#   3]+0.052*[#   4]
          +0.052*[#   6]+0.052*[#   7]+0.052*[#   8]
    |psi|^2 = 0.746
==== e(   3) =     2.11746 eV ==== 
     psi = 0.140*[#   2]+0.140*[#   3]+0.140*[#   4]+0.140*[#   6]+0.140*[#   7]
          +0.140*[#   8]+0.032*[#   1]+0.032*[#   5]
    |psi|^2 = 0.905
==== e(   4) =     3.80306 eV ==== 
     psi = 0.188*[#   2]+0.188*[#   3]+0.188*[#   4]+0.188*[#   6]+0.188*[#   7]
          +0.188*[#   8]
    |psi|^2 = 1.127

 k =   0.4499770426 -0.4499770426 -0.0642824347
==== e(   1) =    -2.90572 eV ==== 
     psi = 0.332*[#   1]+0.332*[#   5]+0.055*[#   2]+0.055*[#   3]+0.055*[#   4]
          +0.055*[#   6]+0.055*[#   7]+0.055*[#   8]
    |psi|^2 = 0.996
==== e(   2) =    -0.62033 eV ==== 
     psi = 0.213*[#   1]+0.213*[#   5]+0.057*[#   2]+0.057*[#   3]+0.057*[#   4]
          +0.057*[#   6]+0.057*[#   7]+0.057*[#   8]
    |psi|^2 = 0.768
==== e(   3) =     1.82877 eV ==== 
     psi = 0.139*[#   2]+0.139*[#   3]+0.139*[#   4]+0.139*[#   6]+0.139*[#   7]
          +0.139*[#   8]+0.028*[#   1]+0.028*[#   5]
    |psi|^2 = 0.893
==== e(   4) =     4.07889 eV ==== 
     psi = 0.185*[#   2]+0.185*[#   3]+0.185*[#   4]+0.185*[#   6]+0.185*[#   7]
          +0.185*[#   8]
    |psi|^2 = 1.110

 k =   0.3856946079 -0.3856946079  0.0000000000
==== e(   1) =    -3.54327 eV ==== 
     psi = 0.328*[#   1]+0.328*[#   5]+0.056*[#   2]+0.056*[#   3]+0.056*[#   4]
          +0.056*[#   6]+0.056*[#   7]+0.056*[#   8]
    |psi|^2 = 0.995
==== e(   2) =     0.14166 eV ==== 
     psi = 0.216*[#   1]+0.216*[#   5]+0.066*[#   2]+0.066*[#   3]+0.066*[#   4]
          +0.066*[#   6]+0.066*[#   7]+0.066*[#   8]
    |psi|^2 = 0.828
==== e(   3) =     1.98953 eV ==== 
     psi = 0.128*[#   2]+0.128*[#   3]+0.128*[#   4]+0.128*[#   6]+0.128*[#   7]
          +0.128*[#   8]+0.031*[#   1]+0.031*[#   5]
    |psi|^2 = 0.829
==== e(   4) =     4.48308 eV ==== 
     psi = 0.186*[#   2]+0.186*[#   3]+0.186*[#   4]+0.186*[#   6]+0.186*[#   7]
          +0.186*[#   8]
    |psi|^2 = 1.117

 k =   0.0000000000  0.0000000000  0.5142594772
==== e(   1) =    -3.67283 eV ==== 
     psi = 0.306*[#   1]+0.306*[#   5]+0.064*[#   2]+0.064*[#   3]+0.064*[#   4]
          +0.064*[#   6]+0.064*[#   7]+0.064*[#   8]
    |psi|^2 = 0.994
==== e(   2) =     0.47624 eV ==== 
     psi = 0.250*[#   1]+0.250*[#   5]
    |psi|^2 = 0.501
==== e(   3) =     3.47509 eV ==== 
     psi = 0.247*[#   2]+0.247*[#   3]+0.247*[#   4]+0.247*[#   6]+0.247*[#   7]
          +0.247*[#   8]
    |psi|^2 = 1.484
==== e(   4) =     3.47509 eV ==== 
     psi = 0.166*[#   2]+0.166*[#   3]+0.166*[#   4]+0.166*[#   6]+0.166*[#   7]
          +0.166*[#   8]
    |psi|^2 = 0.993

 k =  -0.0642824347  0.0642824347  0.5785419119
==== e(   1) =    -3.05041 eV ==== 
     psi = 0.297*[#   1]+0.297*[#   5]+0.067*[#   2]+0.067*[#   3]+0.067*[#   4]
          +0.067*[#   6]+0.067*[#   7]+0.067*[#   8]
    |psi|^2 = 0.994
==== e(   2) =    -0.33705 eV ==== 
     psi = 0.262*[#   1]+0.262*[#   5]+0.005*[#   2]+0.005*[#   3]+0.005*[#   4]
          +0.005*[#   6]+0.005*[#   7]+0.005*[#   8]
    |psi|^2 = 0.554
==== e(   3) =     2.92822 eV ==== 
     psi = 0.222*[#   2]+0.222*[#   3]+0.222*[#   4]+0.222*[#   6]+0.222*[#   7]
          +0.222*[#   8]+0.009*[#   1]+0.009*[#   5]
    |psi|^2 = 1.348
==== e(   4) =     3.37008 eV ==== 
     psi = 0.168*[#   2]+0.168*[#   3]+0.168*[#   4]+0.168*[#   6]+0.168*[#   7]
          +0.168*[#   8]
    |psi|^2 = 1.007

 k =   0.5785419119 -0.5785419119 -0.0642824347
==== e(   1) =    -2.37376 eV ==== 
     psi = 0.300*[#   1]+0.300*[#   5]+0.066*[#   2]+0.066*[#   3]+0.066*[#   4]
          +0.066*[#   6]+0.066*[#   7]+0.066*[#   8]
    |psi|^2 = 0.994
==== e(   2) =    -1.05367 eV ==== 
     psi = 0.267*[#   1]+0.267*[#   5]+0.016*[#   2]+0.016*[#   3]+0.016*[#   4]
          +0.016*[#   6]+0.016*[#   7]+0.016*[#   8]
    |psi|^2 = 0.631
==== e(   3) =     2.13509 eV ==== 
     psi = 0.192*[#   2]+0.192*[#   3]+0.192*[#   4]+0.192*[#   6]+0.192*[#   7]
          +0.192*[#   8]+0.006*[#   1]+0.006*[#   5]
    |psi|^2 = 1.165
==== e(   4) =     3.44373 eV ==== 
     psi = 0.172*[#   2]+0.172*[#   3]+0.172*[#   4]+0.172*[#   6]+0.172*[#   7]
          +0.172*[#   8]
    |psi|^2 = 1.033

 k =   0.5142594772 -0.5142594772  0.0000000000
==== e(   1) =    -2.30548 eV ==== 
     psi = 0.322*[#   1]+0.322*[#   5]+0.058*[#   2]+0.058*[#   3]+0.058*[#   4]
          +0.058*[#   6]+0.058*[#   7]+0.058*[#   8]
    |psi|^2 = 0.995
==== e(   2) =    -1.08832 eV ==== 
     psi = 0.249*[#   1]+0.249*[#   5]+0.030*[#   2]+0.030*[#   3]+0.030*[#   4]
          +0.030*[#   6]+0.030*[#   7]+0.030*[#   8]
    |psi|^2 = 0.679
==== e(   3) =     1.64238 eV ==== 
     psi = 0.174*[#   2]+0.174*[#   3]+0.174*[#   4]+0.174*[#   6]+0.174*[#   7]
          +0.174*[#   8]
    |psi|^2 = 1.047
==== e(   4) =     3.68900 eV ==== 
     psi = 0.175*[#   2]+0.175*[#   3]+0.175*[#   4]+0.175*[#   6]+0.175*[#   7]
          +0.175*[#   8]
    |psi|^2 = 1.050

 k =   0.0000000000  0.0000000000  0.6428243465
==== e(   1) =    -2.46704 eV ==== 
     psi = 0.286*[#   1]+0.286*[#   5]+0.070*[#   2]+0.070*[#   3]+0.070*[#   4]
          +0.070*[#   6]+0.070*[#   7]+0.070*[#   8]
    |psi|^2 = 0.993
==== e(   2) =    -1.06535 eV ==== 
     psi = 0.269*[#   1]+0.269*[#   5]
    |psi|^2 = 0.538
==== e(   3) =     3.21612 eV ==== 
     psi = 0.241*[#   2]+0.241*[#   3]+0.241*[#   4]+0.241*[#   6]+0.241*[#   7]
          +0.241*[#   8]
    |psi|^2 = 1.449
==== e(   4) =     3.21612 eV ==== 
     psi = 0.166*[#   2]+0.166*[#   3]+0.166*[#   4]+0.166*[#   6]+0.166*[#   7]
          +0.166*[#   8]
    |psi|^2 = 0.994

 k =   0.6428243465 -0.6428243465 -0.0000000000
==== e(   1) =    -1.82006 eV ==== 
     psi = 0.285*[#   1]+0.285*[#   5]+0.070*[#   2]+0.070*[#   3]+0.070*[#   4]
          +0.070*[#   6]+0.070*[#   7]+0.070*[#   8]
    |psi|^2 = 0.993
==== e(   2) =    -1.70962 eV ==== 
     psi = 0.273*[#   1]+0.273*[#   5]+0.003*[#   2]+0.003*[#   3]+0.003*[#   4]
          +0.003*[#   6]+0.003*[#   7]+0.003*[#   8]
    |psi|^2 = 0.566
==== e(   3) =     2.76157 eV ==== 
     psi = 0.222*[#   2]+0.222*[#   3]+0.222*[#   4]+0.222*[#   6]+0.222*[#   7]
          +0.222*[#   8]+0.007*[#   1]+0.007*[#   5]
    |psi|^2 = 1.345
==== e(   4) =     3.24144 eV ==== 
     psi = 0.167*[#   2]+0.167*[#   3]+0.167*[#   4]+0.167*[#   6]+0.167*[#   7]
          +0.167*[#   8]
    |psi|^2 = 1.002

 k =   0.0000000000  0.1285648693  0.2571297386
==== e(   1) =    -5.21294 eV ==== 
     psi = 0.382*[#   1]+0.382*[#   5]+0.039*[#   2]+0.039*[#   3]+0.039*[#   4]
          +0.039*[#   6]+0.039*[#   7]+0.039*[#   8]
    |psi|^2 = 0.996
==== e(   2) =     2.99136 eV ==== 
     psi = 0.159*[#   1]+0.159*[#   5]+0.054*[#   2]+0.054*[#   3]+0.054*[#   4]
          +0.054*[#   6]+0.054*[#   7]+0.054*[#   8]
    |psi|^2 = 0.639
==== e(   3) =     4.18619 eV ==== 
     psi = 0.197*[#   2]+0.197*[#   3]+0.197*[#   4]+0.197*[#   6]+0.197*[#   7]
          +0.197*[#   8]+0.027*[#   1]+0.027*[#   5]
    |psi|^2 = 1.237
==== e(   4) =     5.20972 eV ==== 
     psi = 0.132*[#   2]+0.132*[#   3]+0.132*[#   4]+0.132*[#   6]+0.132*[#   7]
          +0.132*[#   8]+0.014*[#   1]+0.014*[#   5]
    |psi|^2 = 0.821

 k =  -0.0642824347  0.1928473040  0.3214121733
==== e(   1) =    -4.69951 eV ==== 
     psi = 0.352*[#   1]+0.352*[#   5]+0.049*[#   2]+0.049*[#   3]+0.049*[#   4]
          +0.049*[#   6]+0.049*[#   7]+0.049*[#   8]
    |psi|^2 = 0.995
==== e(   2) =     1.66933 eV ==== 
     psi = 0.172*[#   1]+0.172*[#   5]+0.068*[#   2]+0.068*[#   3]+0.068*[#   4]
          +0.068*[#   6]+0.068*[#   7]+0.068*[#   8]
    |psi|^2 = 0.750
==== e(   3) =     3.61991 eV ==== 
     psi = 0.162*[#   2]+0.162*[#   3]+0.162*[#   4]+0.162*[#   6]+0.162*[#   7]
          +0.162*[#   8]+0.047*[#   1]+0.047*[#   5]
    |psi|^2 = 1.069
==== e(   4) =     4.88925 eV ==== 
     psi = 0.139*[#   2]+0.139*[#   3]+0.139*[#   4]+0.139*[#   6]+0.139*[#   7]
          +0.139*[#   8]+0.011*[#   1]+0.011*[#   5]
    |psi|^2 = 0.856

 k =  -0.1285648693  0.2571297386  0.3856946079
==== e(   1) =    -4.03947 eV ==== 
     psi = 0.340*[#   1]+0.340*[#   5]+0.052*[#   2]+0.052*[#   3]+0.052*[#   4]
          +0.052*[#   6]+0.052*[#   7]+0.052*[#   8]
    |psi|^2 = 0.995
==== e(   2) =     0.32195 eV ==== 
     psi = 0.170*[#   1]+0.170*[#   5]+0.080*[#   2]+0.080*[#   3]+0.080*[#   4]
          +0.080*[#   6]+0.080*[#   7]+0.080*[#   8]
    |psi|^2 = 0.819
==== e(   3) =     3.36265 eV ==== 
     psi = 0.138*[#   2]+0.138*[#   3]+0.138*[#   4]+0.138*[#   6]+0.138*[#   7]
          +0.138*[#   8]+0.062*[#   1]+0.062*[#   5]
    |psi|^2 = 0.951
==== e(   4) =     4.54412 eV ==== 
     psi = 0.151*[#   2]+0.151*[#   3]+0.151*[#   4]+0.151*[#   6]+0.151*[#   7]
          +0.151*[#   8]+0.006*[#   1]+0.006*[#   5]
    |psi|^2 = 0.920

 k =   0.5142594772 -0.3856946079 -0.2571297386
==== e(   1) =    -3.42104 eV ==== 
     psi = 0.354*[#   1]+0.354*[#   5]+0.048*[#   2]+0.048*[#   3]+0.048*[#   4]
          +0.048*[#   6]+0.048*[#   7]+0.048*[#   8]
    |psi|^2 = 0.996
==== e(   2) =    -0.66447 eV ==== 
     psi = 0.149*[#   1]+0.149*[#   5]+0.090*[#   2]+0.090*[#   3]+0.090*[#   4]
          +0.090*[#   6]+0.090*[#   7]+0.090*[#   8]
    |psi|^2 = 0.841
==== e(   3) =     3.26324 eV ==== 
     psi = 0.124*[#   2]+0.124*[#   3]+0.124*[#   4]+0.124*[#   6]+0.124*[#   7]
          +0.124*[#   8]+0.070*[#   1]+0.070*[#   5]
    |psi|^2 = 0.885
==== e(   4) =     4.33293 eV ==== 
     psi = 0.165*[#   2]+0.165*[#   3]+0.165*[#   4]+0.165*[#   6]+0.165*[#   7]
          +0.165*[#   8]+0.002*[#   1]+0.002*[#   5]
    |psi|^2 = 0.996

 k =   0.0000000000  0.1285648693  0.3856946079
==== e(   1) =    -4.51447 eV ==== 
     psi = 0.338*[#   1]+0.338*[#   5]+0.053*[#   2]+0.053*[#   3]+0.053*[#   4]
          +0.053*[#   6]+0.053*[#   7]+0.053*[#   8]
    |psi|^2 = 0.995
==== e(   2) =     1.70585 eV ==== 
     psi = 0.211*[#   1]+0.211*[#   5]+0.030*[#   2]+0.030*[#   3]+0.030*[#   4]
          +0.030*[#   6]+0.030*[#   7]+0.030*[#   8]
    |psi|^2 = 0.605
==== e(   3) =     3.46789 eV ==== 
     psi = 0.208*[#   2]+0.208*[#   3]+0.208*[#   4]+0.208*[#   6]+0.208*[#   7]
          +0.208*[#   8]+0.026*[#   1]+0.026*[#   5]
    |psi|^2 = 1.299
==== e(   4) =     4.19701 eV ==== 
     psi = 0.149*[#   2]+0.149*[#   3]+0.149*[#   4]+0.149*[#   6]+0.149*[#   7]
          +0.149*[#   8]+0.009*[#   1]+0.009*[#   5]
    |psi|^2 = 0.913

 k =  -0.0642824347  0.1928473040  0.4499770426
==== e(   1) =    -3.89577 eV ==== 
     psi = 0.324*[#   1]+0.324*[#   5]+0.058*[#   2]+0.058*[#   3]+0.058*[#   4]
          +0.058*[#   6]+0.058*[#   7]+0.058*[#   8]
    |psi|^2 = 0.995
==== e(   2) =     0.62476 eV ==== 
     psi = 0.216*[#   1]+0.216*[#   5]+0.048*[#   2]+0.048*[#   3]+0.048*[#   4]
          +0.048*[#   6]+0.048*[#   7]+0.048*[#   8]
    |psi|^2 = 0.721
==== e(   3) =     2.88652 eV ==== 
     psi = 0.167*[#   2]+0.167*[#   3]+0.167*[#   4]+0.167*[#   6]+0.167*[#   7]
          +0.167*[#   8]+0.043*[#   1]+0.043*[#   5]
    |psi|^2 = 1.086
==== e(   4) =     3.88000 eV ==== 
     psi = 0.158*[#   2]+0.158*[#   3]+0.158*[#   4]+0.158*[#   6]+0.158*[#   7]
          +0.158*[#   8]+0.004*[#   1]+0.004*[#   5]
    |psi|^2 = 0.959

 k =   0.5785419119 -0.4499770426 -0.1928473040
==== e(   1) =    -3.21980 eV ==== 
     psi = 0.328*[#   1]+0.328*[#   5]+0.057*[#   2]+0.057*[#   3]+0.057*[#   4]
          +0.057*[#   6]+0.057*[#   7]+0.057*[#   8]
    |psi|^2 = 0.995
==== e(   2) =    -0.38916 eV ==== 
     psi = 0.202*[#   1]+0.202*[#   5]+0.067*[#   2]+0.067*[#   3]+0.067*[#   4]
          +0.067*[#   6]+0.067*[#   7]+0.067*[#   8]
    |psi|^2 = 0.807
==== e(   3) =     2.49840 eV ==== 
     psi = 0.132*[#   2]+0.132*[#   3]+0.132*[#   4]+0.132*[#   6]+0.132*[#   7]
          +0.132*[#   8]+0.053*[#   1]+0.053*[#   5]
    |psi|^2 = 0.895
==== e(   4) =     3.72349 eV ==== 
     psi = 0.176*[#   2]+0.176*[#   3]+0.176*[#   4]+0.176*[#   6]+0.176*[#   7]
          +0.176*[#   8]+0.002*[#   1]+0.002*[#   5]
    |psi|^2 = 1.057

 k =   0.5142594772 -0.3856946079 -0.1285648693
==== e(   1) =    -2.95043 eV ==== 
     psi = 0.340*[#   1]+0.340*[#   5]+0.053*[#   2]+0.053*[#   3]+0.053*[#   4]
          +0.053*[#   6]+0.053*[#   7]+0.053*[#   8]
    |psi|^2 = 0.996
==== e(   2) =    -0.74153 eV ==== 
     psi = 0.187*[#   1]+0.187*[#   5]+0.079*[#   2]+0.079*[#   3]+0.079*[#   4]
          +0.079*[#   6]+0.079*[#   7]+0.079*[#   8]
    |psi|^2 = 0.849
==== e(   3) =     2.26640 eV ==== 
     psi = 0.125*[#   2]+0.125*[#   3]+0.125*[#   4]+0.125*[#   6]+0.125*[#   7]
          +0.125*[#   8]+0.052*[#   1]+0.052*[#   5]
    |psi|^2 = 0.854
==== e(   4) =     3.81379 eV ==== 
     psi = 0.178*[#   2]+0.178*[#   3]+0.178*[#   4]+0.178*[#   6]+0.178*[#   7]
          +0.178*[#   8]+0.003*[#   1]+0.003*[#   5]
    |psi|^2 = 1.077

 k =   0.4499770426 -0.3214121733 -0.0642824347
==== e(   1) =    -3.46025 eV ==== 
     psi = 0.328*[#   1]+0.328*[#   5]+0.056*[#   2]+0.056*[#   3]+0.056*[#   4]
          +0.056*[#   6]+0.056*[#   7]+0.056*[#   8]
    |psi|^2 = 0.995
==== e(   2) =    -0.04738 eV ==== 
     psi = 0.206*[#   1]+0.206*[#   5]+0.084*[#   2]+0.084*[#   3]+0.084*[#   4]
          +0.084*[#   6]+0.084*[#   7]+0.084*[#   8]
    |psi|^2 = 0.915
==== e(   3) =     2.25379 eV ==== 
     psi = 0.121*[#   2]+0.121*[#   3]+0.121*[#   4]+0.121*[#   6]+0.121*[#   7]
          +0.121*[#   8]+0.044*[#   1]+0.044*[#   5]
    |psi|^2 = 0.816
==== e(   4) =     4.11138 eV ==== 
     psi = 0.178*[#   2]+0.178*[#   3]+0.178*[#   4]+0.178*[#   6]+0.178*[#   7]
          +0.178*[#   8]+0.005*[#   1]+0.005*[#   5]
    |psi|^2 = 1.076

 k =   0.3856946079 -0.2571297386  0.0000000000
==== e(   1) =    -4.13794 eV ==== 
     psi = 0.333*[#   1]+0.333*[#   5]+0.055*[#   2]+0.055*[#   3]+0.055*[#   4]
          +0.055*[#   6]+0.055*[#   7]+0.055*[#   8]
    |psi|^2 = 0.995
==== e(   2) =     0.93692 eV ==== 
     psi = 0.206*[#   1]+0.206*[#   5]+0.094*[#   2]+0.094*[#   3]+0.094*[#   4]
          +0.094*[#   6]+0.094*[#   7]+0.094*[#   8]
    |psi|^2 = 0.975
==== e(   3) =     2.63251 eV ==== 
     psi = 0.110*[#   2]+0.110*[#   3]+0.110*[#   4]+0.110*[#   6]+0.110*[#   7]
          +0.110*[#   8]+0.040*[#   1]+0.040*[#   5]
    |psi|^2 = 0.737
==== e(   4) =     4.52934 eV ==== 
     psi = 0.184*[#   2]+0.184*[#   3]+0.184*[#   4]+0.184*[#   6]+0.184*[#   7]
          +0.184*[#   8]+0.007*[#   1]+0.007*[#   5]
    |psi|^2 = 1.118

 k =   0.0000000000  0.1285648693  0.5142594772
==== e(   1) =    -3.56290 eV ==== 
     psi = 0.309*[#   1]+0.309*[#   5]+0.063*[#   2]+0.063*[#   3]+0.063*[#   4]
          +0.063*[#   6]+0.063*[#   7]+0.063*[#   8]
    |psi|^2 = 0.994
==== e(   2) =     0.33989 eV ==== 
     psi = 0.251*[#   1]+0.251*[#   5]+0.014*[#   2]+0.014*[#   3]+0.014*[#   4]
          +0.014*[#   6]+0.014*[#   7]+0.014*[#   8]
    |psi|^2 = 0.587
==== e(   3) =     2.99138 eV ==== 
     psi = 0.215*[#   2]+0.215*[#   3]+0.215*[#   4]+0.215*[#   6]+0.215*[#   7]
          +0.215*[#   8]+0.020*[#   1]+0.020*[#   5]
    |psi|^2 = 1.332
==== e(   4) =     3.38936 eV ==== 
     psi = 0.156*[#   2]+0.156*[#   3]+0.156*[#   4]+0.156*[#   6]+0.156*[#   7]
          +0.156*[#   8]
    |psi|^2 = 0.937

 k =   0.6428243465 -0.5142594772 -0.1285648693
==== e(   1) =    -2.88050 eV ==== 
     psi = 0.305*[#   1]+0.305*[#   5]+0.064*[#   2]+0.064*[#   3]+0.064*[#   4]
          +0.064*[#   6]+0.064*[#   7]+0.064*[#   8]
    |psi|^2 = 0.994
==== e(   2) =    -0.48210 eV ==== 
     psi = 0.259*[#   1]+0.259*[#   5]+0.028*[#   2]+0.028*[#   3]+0.028*[#   4]
          +0.028*[#   6]+0.028*[#   7]+0.028*[#   8]
    |psi|^2 = 0.685
==== e(   3) =     2.33742 eV ==== 
     psi = 0.182*[#   2]+0.182*[#   3]+0.182*[#   4]+0.182*[#   6]+0.182*[#   7]
          +0.182*[#   8]+0.017*[#   1]+0.017*[#   5]
    |psi|^2 = 1.125
==== e(   4) =     3.20837 eV ==== 
     psi = 0.164*[#   2]+0.164*[#   3]+0.164*[#   4]+0.164*[#   6]+0.164*[#   7]
          +0.164*[#   8]+0.003*[#   1]+0.003*[#   5]
    |psi|^2 = 0.991

 k =   0.5785419119 -0.4499770426 -0.0642824347
==== e(   1) =    -2.40738 eV ==== 
     psi = 0.320*[#   1]+0.320*[#   5]+0.059*[#   2]+0.059*[#   3]+0.059*[#   4]
          +0.059*[#   6]+0.059*[#   7]+0.059*[#   8]
    |psi|^2 = 0.995
==== e(   2) =    -0.98349 eV ==== 
     psi = 0.248*[#   1]+0.248*[#   5]+0.046*[#   2]+0.046*[#   3]+0.046*[#   4]
          +0.046*[#   6]+0.046*[#   7]+0.046*[#   8]
    |psi|^2 = 0.770
==== e(   3) =     1.80856 eV ==== 
     psi = 0.160*[#   2]+0.160*[#   3]+0.160*[#   4]+0.160*[#   6]+0.160*[#   7]
          +0.160*[#   8]+0.010*[#   1]+0.010*[#   5]
    |psi|^2 = 0.980
==== e(   4) =     3.32540 eV ==== 
     psi = 0.170*[#   2]+0.170*[#   3]+0.170*[#   4]+0.170*[#   6]+0.170*[#   7]
          +0.170*[#   8]+0.005*[#   1]+0.005*[#   5]
    |psi|^2 = 1.029

 k =   0.5142594772 -0.3856946079  0.0000000000
==== e(   1) =    -2.79479 eV ==== 
     psi = 0.323*[#   1]+0.323*[#   5]+0.058*[#   2]+0.058*[#   3]+0.058*[#   4]
          +0.058*[#   6]+0.058*[#   7]+0.058*[#   8]
    |psi|^2 = 0.995
==== e(   2) =    -0.58284 eV ==== 
     psi = 0.242*[#   1]+0.242*[#   5]+0.062*[#   2]+0.062*[#   3]+0.062*[#   4]
          +0.062*[#   6]+0.062*[#   7]+0.062*[#   8]
    |psi|^2 = 0.852
==== e(   3) =     1.70258 eV ==== 
     psi = 0.144*[#   2]+0.144*[#   3]+0.144*[#   4]+0.144*[#   6]+0.144*[#   7]
          +0.144*[#   8]+0.013*[#   1]+0.013*[#   5]
    |psi|^2 = 0.892
==== e(   4) =     3.65096 eV ==== 
     psi = 0.171*[#   2]+0.171*[#   3]+0.171*[#   4]+0.171*[#   6]+0.171*[#   7]
          +0.171*[#   8]+0.006*[#   1]+0.006*[#   5]
    |psi|^2 = 1.040

 k =   0.7071067812 -0.5785419119 -0.0642824347
==== e(   1) =    -2.39257 eV ==== 
     psi = 0.290*[#   1]+0.290*[#   5]+0.069*[#   2]+0.069*[#   3]+0.069*[#   4]
          +0.069*[#   6]+0.069*[#   7]+0.069*[#   8]
    |psi|^2 = 0.994
==== e(   2) =    -1.06145 eV ==== 
     psi = 0.273*[#   1]+0.273*[#   5]+0.008*[#   2]+0.008*[#   3]+0.008*[#   4]
          +0.008*[#   6]+0.008*[#   7]+0.008*[#   8]
    |psi|^2 = 0.597
==== e(   3) =     2.80020 eV ==== 
     psi = 0.218*[#   2]+0.218*[#   3]+0.218*[#   4]+0.218*[#   6]+0.218*[#   7]
          +0.218*[#   8]+0.011*[#   1]+0.011*[#   5]
    |psi|^2 = 1.331
==== e(   4) =     2.92377 eV ==== 
     psi = 0.155*[#   2]+0.155*[#   3]+0.155*[#   4]+0.155*[#   6]+0.155*[#   7]
          +0.155*[#   8]+0.003*[#   1]+0.003*[#   5]
    |psi|^2 = 0.939

 k =   0.6428243465 -0.5142594772  0.0000000000
==== e(   1) =    -1.88389 eV ==== 
     psi = 0.302*[#   1]+0.302*[#   5]+0.065*[#   2]+0.065*[#   3]+0.065*[#   4]
          +0.065*[#   6]+0.065*[#   7]+0.065*[#   8]
    |psi|^2 = 0.994
==== e(   2) =    -1.50918 eV ==== 
     psi = 0.272*[#   1]+0.272*[#   5]+0.021*[#   2]+0.021*[#   3]+0.021*[#   4]
          +0.021*[#   6]+0.021*[#   7]+0.021*[#   8]
    |psi|^2 = 0.667
==== e(   3) =     2.12592 eV ==== 
     psi = 0.195*[#   2]+0.195*[#   3]+0.195*[#   4]+0.195*[#   6]+0.195*[#   7]
          +0.195*[#   8]+0.003*[#   1]+0.003*[#   5]
    |psi|^2 = 1.176
==== e(   4) =     2.99610 eV ==== 
     psi = 0.159*[#   2]+0.159*[#   3]+0.159*[#   4]+0.159*[#   6]+0.159*[#   7]
          +0.159*[#   8]+0.006*[#   1]+0.006*[#   5]
    |psi|^2 = 0.967

 k =   0.7071067812 -0.4499770426 -0.1928473040
==== e(   1) =    -3.25042 eV ==== 
     psi = 0.315*[#   1]+0.315*[#   5]+0.061*[#   2]+0.061*[#   3]+0.061*[#   4]
          +0.061*[#   6]+0.061*[#   7]+0.061*[#   8]
    |psi|^2 = 0.995
==== e(   2) =    -0.05464 eV ==== 
     psi = 0.246*[#   1]+0.246*[#   5]+0.048*[#   2]+0.048*[#   3]+0.048*[#   4]
          +0.048*[#   6]+0.048*[#   7]+0.048*[#   8]
    |psi|^2 = 0.778
==== e(   3) =     2.22109 eV ==== 
     psi = 0.174*[#   2]+0.174*[#   3]+0.174*[#   4]+0.174*[#   6]+0.174*[#   7]
          +0.174*[#   8]+0.026*[#   1]+0.026*[#   5]
    |psi|^2 = 1.092
==== e(   4) =     3.40657 eV ==== 
     psi = 0.144*[#   2]+0.144*[#   3]+0.144*[#   4]+0.144*[#   6]+0.144*[#   7]
          +0.144*[#   8]+0.004*[#   1]+0.004*[#   5]
    |psi|^2 = 0.873

 k =   0.6428243465 -0.3856946079 -0.1285648693
==== e(   1) =    -2.61267 eV ==== 
     psi = 0.319*[#   1]+0.319*[#   5]+0.060*[#   2]+0.060*[#   3]+0.060*[#   4]
          +0.060*[#   6]+0.060*[#   7]+0.060*[#   8]
    |psi|^2 = 0.995
==== e(   2) =    -0.75669 eV ==== 
     psi = 0.247*[#   1]+0.247*[#   5]+0.065*[#   2]+0.065*[#   3]+0.065*[#   4]
          +0.065*[#   6]+0.065*[#   7]+0.065*[#   8]
    |psi|^2 = 0.882
==== e(   3) =     1.93773 eV ==== 
     psi = 0.152*[#   2]+0.152*[#   3]+0.152*[#   4]+0.152*[#   6]+0.152*[#   7]
          +0.152*[#   8]+0.021*[#   1]+0.021*[#   5]
    |psi|^2 = 0.953
==== e(   4) =     3.08241 eV ==== 
     psi = 0.152*[#   2]+0.152*[#   3]+0.152*[#   4]+0.152*[#   6]+0.152*[#   7]
          +0.152*[#   8]+0.003*[#   1]+0.003*[#   5]
    |psi|^2 = 0.915

 k =   0.7071067812 -0.4499770426 -0.0642824347
==== e(   1) =    -2.20395 eV ==== 
     psi = 0.300*[#   1]+0.300*[#   5]+0.066*[#   2]+0.066*[#   3]+0.066*[#   4]
          +0.066*[#   6]+0.066*[#   7]+0.066*[#   8]
    |psi|^2 = 0.995
==== e(   2) =    -1.10309 eV ==== 
     psi = 0.280*[#   1]+0.280*[#   5]+0.036*[#   2]+0.036*[#   3]+0.036*[#   4]
          +0.036*[#   6]+0.036*[#   7]+0.036*[#   8]
    |psi|^2 = 0.776
==== e(   3) =     2.17119 eV ==== 
     psi = 0.181*[#   2]+0.181*[#   3]+0.181*[#   4]+0.181*[#   6]+0.181*[#   7]
          +0.181*[#   8]+0.009*[#   1]+0.009*[#   5]
    |psi|^2 = 1.107
==== e(   4) =     2.55753 eV ==== 
     psi = 0.148*[#   2]+0.148*[#   3]+0.148*[#   4]+0.148*[#   6]+0.148*[#   7]
          +0.148*[#   8]
    |psi|^2 = 0.890

 k =   0.6428243465 -0.3856946079  0.0000000000
==== e(   1) =    -2.00192 eV ==== 
     psi = 0.309*[#   1]+0.309*[#   5]+0.063*[#   2]+0.063*[#   3]+0.063*[#   4]
          +0.063*[#   6]+0.063*[#   7]+0.063*[#   8]
    |psi|^2 = 0.995
==== e(   2) =    -1.26849 eV ==== 
     psi = 0.278*[#   1]+0.278*[#   5]+0.057*[#   2]+0.057*[#   3]+0.057*[#   4]
          +0.057*[#   6]+0.057*[#   7]+0.057*[#   8]
    |psi|^2 = 0.895
==== e(   3) =     1.88633 eV ==== 
     psi = 0.157*[#   2]+0.157*[#   3]+0.157*[#   4]+0.157*[#   6]+0.157*[#   7]
          +0.157*[#   8]
    |psi|^2 = 0.941
==== e(   4) =     2.59429 eV ==== 
     psi = 0.155*[#   2]+0.155*[#   3]+0.155*[#   4]+0.155*[#   6]+0.155*[#   7]
          +0.155*[#   8]+0.003*[#   1]+0.003*[#   5]
    |psi|^2 = 0.935

Lowdin Charges: 

     Atom #   1: total charge =   3.7646, s =  1.1504, 
     Atom #   1: total charge =   3.7646, p =  2.6141, pz=  0.8714, px=  0.8714, py=  0.8714, 
     Atom #   2: total charge =   3.7646, s =  1.1504, 
     Atom #   2: total charge =   3.7646, p =  2.6141, pz=  0.8714, px=  0.8714, py=  0.8714, 
     Spilling Parameter:   0.0589

     PROJWFC      :      0.26s CPU      0.27s WALL


   This run was terminated on:   8:30: 0  13Aug2024            

=------------------------------------------------------------------------------=
   JOB DONE.
=------------------------------------------------------------------------------=
