
     Program PWSCF v.7.3.1 starts on  5Aug2024 at  9:40:55 

     This program is part of the open-source Quantum ESPRESSO suite
     for quantum simulation of materials; please cite
         "P. Giannozzi et al., J. Phys.:Condens. Matter 21 395502 (2009);
         "P. Giannozzi et al., J. Phys.:Condens. Matter 29 465901 (2017);
         "P. Giannozzi et al., J. Chem. Phys. 152 154105 (2020);
          URL http://www.quantum-espresso.org", 
     in publications or presentations arising from this work. More details at
     http://www.quantum-espresso.org/quote

     Parallel version (MPI), running on     1 processors

     MPI processes distributed on     1 nodes
     4534 MiB available memory on the printing compute node when the environment starts

     Reading input from si_pbesol.pwi

     Current dimensions of program PWSCF are:
     Max number of different atomic species (ntypx) = 10
     Max number of k-points (npk) =  40000
     Max angular momentum in pseudopotentials (lmaxx) =  4
     Message from routine volume:
     axis vectors are left-handed
     Message from routine setup:
     using ibrav=0 with symmetry is DISCOURAGED, use correct ibrav instead

     Subspace diagonalization in iterative solution of the eigenvalue problem:
     a serial algorithm will be used


     G-vector sticks info
     --------------------
     sticks:   dense  smooth     PW     G-vecs:    dense   smooth      PW
     Sum         859     433    151                16889     5985    1139

     Using Slab Decomposition



     bravais-lattice index     =            0
     lattice parameter (alat)  =       7.2571  a.u.
     unit-cell volume          =     270.2504 (a.u.)^3
     number of atoms/cell      =            2
     number of atomic types    =            1
     number of electrons       =         8.00
     number of Kohn-Sham states=            4
     kinetic-energy cutoff     =      30.0000  Ry
     charge density cutoff     =     240.0000  Ry
     scf convergence threshold =      4.0E-10
     mixing beta               =       0.4000
     number of iterations used =            8  plain     mixing
     Exchange-correlation= PBESOL
                           (   1   4  10   8   0   0   0)

     celldm(1)=   7.257056  celldm(2)=   0.000000  celldm(3)=   0.000000
     celldm(4)=   0.000000  celldm(5)=   0.000000  celldm(6)=   0.000000

     crystal axes: (cart. coord. in units of alat)
               a(1) = (   0.707107   0.707107   0.000000 )  
               a(2) = (   0.707107   0.000000   0.707107 )  
               a(3) = (   0.000000   0.707107   0.707107 )  

     reciprocal axes: (cart. coord. in units 2 pi/alat)
               b(1) = (  0.707107  0.707107 -0.707107 )  
               b(2) = (  0.707107 -0.707107  0.707107 )  
               b(3) = ( -0.707107  0.707107  0.707107 )  


     PseudoPot. # 1 for Si read from file:
     ./pseudo/Si_pbesol.upf
     MD5 check sum: 592b7731af088fcc4fa7de7cc9cfae9b
     Pseudo is Norm-conserving + core correction, Zval =  4.0
     Generated using ONCVPSP code by D. R. Hamann
     Using radial grid of 1510 points,  6 beta functions with: 
                l(1) =   0
                l(2) =   0
                l(3) =   1
                l(4) =   1
                l(5) =   2
                l(6) =   2

     atomic species   valence    mass     pseudopotential
     Si                4.00    28.08550     Si( 1.00)

     48 Sym. Ops., with inversion, found (24 have fractional translation)


                                    s                        frac. trans.

      isym =  1     identity                                     

 cryst.   s( 1) = (     1          0          0      )
                  (     0          1          0      )
                  (     0          0          1      )

 cart.    s( 1) = (  1.0000000  0.0000000  0.0000000 )
                  (  0.0000000  1.0000000  0.0000000 )
                  (  0.0000000  0.0000000  1.0000000 )


      isym =  2     180 deg rotation - cart. axis [0,0,1]        

 cryst.   s( 2) = (    -1          0          0      )
                  (    -1          0          1      )
                  (    -1          1          0      )

 cart.    s( 2) = ( -1.0000000  0.0000000  0.0000000 )
                  (  0.0000000 -1.0000000  0.0000000 )
                  (  0.0000000  0.0000000  1.0000000 )


      isym =  3     180 deg rotation - cart. axis [0,1,0]        

 cryst.   s( 3) = (     0         -1          1      )
                  (     0         -1          0      )
                  (     1         -1          0      )

 cart.    s( 3) = ( -1.0000000  0.0000000  0.0000000 )
                  (  0.0000000  1.0000000  0.0000000 )
                  (  0.0000000  0.0000000 -1.0000000 )


      isym =  4     180 deg rotation - cart. axis [1,0,0]        

 cryst.   s( 4) = (     0          1         -1      )
                  (     1          0         -1      )
                  (     0          0         -1      )

 cart.    s( 4) = (  1.0000000  0.0000000  0.0000000 )
                  (  0.0000000 -1.0000000  0.0000000 )
                  (  0.0000000  0.0000000 -1.0000000 )


      isym =  5     180 deg rotation - cart. axis [1,1,0]        

 cryst.   s( 5) = (     1          0          0      )    f =( -0.2500000 )
                  (     1         -1          0      )       ( -0.2500000 )
                  (     1          0         -1      )       ( -0.2500000 )

 cart.    s( 5) = (  0.0000000  1.0000000  0.0000000 )    f =( -0.3535534 )
                  (  1.0000000  0.0000000  0.0000000 )       ( -0.3535534 )
                  (  0.0000000  0.0000000 -1.0000000 )       ( -0.3535534 )


      isym =  6     180 deg rotation - cart. axis [1,-1,0]       

 cryst.   s( 6) = (    -1          0          0      )    f =( -0.2500000 )
                  (     0          0         -1      )       ( -0.2500000 )
                  (     0         -1          0      )       ( -0.2500000 )

 cart.    s( 6) = (  0.0000000 -1.0000000  0.0000000 )    f =( -0.3535534 )
                  ( -1.0000000  0.0000000  0.0000000 )       ( -0.3535534 )
                  (  0.0000000  0.0000000 -1.0000000 )       ( -0.3535534 )


      isym =  7      90 deg rotation - cart. axis [0,0,-1]       

 cryst.   s( 7) = (     0          1         -1      )    f =( -0.2500000 )
                  (    -1          1          0      )       ( -0.2500000 )
                  (     0          1          0      )       ( -0.2500000 )

 cart.    s( 7) = (  0.0000000  1.0000000  0.0000000 )    f =( -0.3535534 )
                  ( -1.0000000  0.0000000  0.0000000 )       ( -0.3535534 )
                  (  0.0000000  0.0000000  1.0000000 )       ( -0.3535534 )


      isym =  8      90 deg rotation - cart. axis [0,0,1]        

 cryst.   s( 8) = (     0         -1          1      )    f =( -0.2500000 )
                  (     0          0          1      )       ( -0.2500000 )
                  (    -1          0          1      )       ( -0.2500000 )

 cart.    s( 8) = (  0.0000000 -1.0000000  0.0000000 )    f =( -0.3535534 )
                  (  1.0000000  0.0000000  0.0000000 )       ( -0.3535534 )
                  (  0.0000000  0.0000000  1.0000000 )       ( -0.3535534 )


      isym =  9     180 deg rotation - cart. axis [1,0,1]        

 cryst.   s( 9) = (    -1          1          0      )    f =( -0.2500000 )
                  (     0          1          0      )       ( -0.2500000 )
                  (     0          1         -1      )       ( -0.2500000 )

 cart.    s( 9) = (  0.0000000  0.0000000  1.0000000 )    f =( -0.3535534 )
                  (  0.0000000 -1.0000000  0.0000000 )       ( -0.3535534 )
                  (  1.0000000  0.0000000  0.0000000 )       ( -0.3535534 )


      isym = 10     180 deg rotation - cart. axis [-1,0,1]       

 cryst.   s(10) = (     0          0         -1      )    f =( -0.2500000 )
                  (     0         -1          0      )       ( -0.2500000 )
                  (    -1          0          0      )       ( -0.2500000 )

 cart.    s(10) = (  0.0000000  0.0000000 -1.0000000 )    f =( -0.3535534 )
                  (  0.0000000 -1.0000000  0.0000000 )       ( -0.3535534 )
                  ( -1.0000000  0.0000000  0.0000000 )       ( -0.3535534 )


      isym = 11      90 deg rotation - cart. axis [0,1,0]        

 cryst.   s(11) = (     1         -1          0      )    f =( -0.2500000 )
                  (     1          0         -1      )       ( -0.2500000 )
                  (     1          0          0      )       ( -0.2500000 )

 cart.    s(11) = (  0.0000000  0.0000000  1.0000000 )    f =( -0.3535534 )
                  (  0.0000000  1.0000000  0.0000000 )       ( -0.3535534 )
                  ( -1.0000000  0.0000000  0.0000000 )       ( -0.3535534 )


      isym = 12      90 deg rotation - cart. axis [0,-1,0]       

 cryst.   s(12) = (     0          0          1      )    f =( -0.2500000 )
                  (    -1          0          1      )       ( -0.2500000 )
                  (     0         -1          1      )       ( -0.2500000 )

 cart.    s(12) = (  0.0000000  0.0000000 -1.0000000 )    f =( -0.3535534 )
                  (  0.0000000  1.0000000  0.0000000 )       ( -0.3535534 )
                  (  1.0000000  0.0000000  0.0000000 )       ( -0.3535534 )


      isym = 13     180 deg rotation - cart. axis [0,1,1]        

 cryst.   s(13) = (    -1          0          1      )    f =( -0.2500000 )
                  (     0         -1          1      )       ( -0.2500000 )
                  (     0          0          1      )       ( -0.2500000 )

 cart.    s(13) = ( -1.0000000  0.0000000  0.0000000 )    f =( -0.3535534 )
                  (  0.0000000  0.0000000  1.0000000 )       ( -0.3535534 )
                  (  0.0000000  1.0000000  0.0000000 )       ( -0.3535534 )


      isym = 14     180 deg rotation - cart. axis [0,1,-1]       

 cryst.   s(14) = (     0         -1          0      )    f =( -0.2500000 )
                  (    -1          0          0      )       ( -0.2500000 )
                  (     0          0         -1      )       ( -0.2500000 )

 cart.    s(14) = ( -1.0000000  0.0000000  0.0000000 )    f =( -0.3535534 )
                  (  0.0000000  0.0000000 -1.0000000 )       ( -0.3535534 )
                  (  0.0000000 -1.0000000  0.0000000 )       ( -0.3535534 )


      isym = 15      90 deg rotation - cart. axis [-1,0,0]       

 cryst.   s(15) = (     1          0         -1      )    f =( -0.2500000 )
                  (     1          0          0      )       ( -0.2500000 )
                  (     1         -1          0      )       ( -0.2500000 )

 cart.    s(15) = (  1.0000000  0.0000000  0.0000000 )    f =( -0.3535534 )
                  (  0.0000000  0.0000000  1.0000000 )       ( -0.3535534 )
                  (  0.0000000 -1.0000000  0.0000000 )       ( -0.3535534 )


      isym = 16      90 deg rotation - cart. axis [1,0,0]        

 cryst.   s(16) = (     0          1          0      )    f =( -0.2500000 )
                  (     0          1         -1      )       ( -0.2500000 )
                  (    -1          1          0      )       ( -0.2500000 )

 cart.    s(16) = (  1.0000000  0.0000000  0.0000000 )    f =( -0.3535534 )
                  (  0.0000000  0.0000000 -1.0000000 )       ( -0.3535534 )
                  (  0.0000000  1.0000000  0.0000000 )       ( -0.3535534 )


      isym = 17     120 deg rotation - cart. axis [-1,-1,-1]     

 cryst.   s(17) = (     0          1          0      )
                  (     0          0          1      )
                  (     1          0          0      )

 cart.    s(17) = (  0.0000000  1.0000000  0.0000000 )
                  (  0.0000000  0.0000000  1.0000000 )
                  (  1.0000000  0.0000000  0.0000000 )


      isym = 18     120 deg rotation - cart. axis [-1,1,1]       

 cryst.   s(18) = (     0         -1          0      )
                  (     1         -1          0      )
                  (     0         -1          1      )

 cart.    s(18) = (  0.0000000 -1.0000000  0.0000000 )
                  (  0.0000000  0.0000000  1.0000000 )
                  ( -1.0000000  0.0000000  0.0000000 )


      isym = 19     120 deg rotation - cart. axis [1,1,-1]       

 cryst.   s(19) = (     1          0         -1      )
                  (     0          0         -1      )
                  (     0          1         -1      )

 cart.    s(19) = (  0.0000000  1.0000000  0.0000000 )
                  (  0.0000000  0.0000000 -1.0000000 )
                  ( -1.0000000  0.0000000  0.0000000 )


      isym = 20     120 deg rotation - cart. axis [1,-1,1]       

 cryst.   s(20) = (    -1          0          1      )
                  (    -1          1          0      )
                  (    -1          0          0      )

 cart.    s(20) = (  0.0000000 -1.0000000  0.0000000 )
                  (  0.0000000  0.0000000 -1.0000000 )
                  (  1.0000000  0.0000000  0.0000000 )


      isym = 21     120 deg rotation - cart. axis [1,1,1]        

 cryst.   s(21) = (     0          0          1      )
                  (     1          0          0      )
                  (     0          1          0      )

 cart.    s(21) = (  0.0000000  0.0000000  1.0000000 )
                  (  1.0000000  0.0000000  0.0000000 )
                  (  0.0000000  1.0000000  0.0000000 )


      isym = 22     120 deg rotation - cart. axis [-1,1,-1]      

 cryst.   s(22) = (     0          0         -1      )
                  (     0          1         -1      )
                  (     1          0         -1      )

 cart.    s(22) = (  0.0000000  0.0000000  1.0000000 )
                  ( -1.0000000  0.0000000  0.0000000 )
                  (  0.0000000 -1.0000000  0.0000000 )


      isym = 23     120 deg rotation - cart. axis [1,-1,-1]      

 cryst.   s(23) = (    -1          1          0      )
                  (    -1          0          0      )
                  (    -1          0          1      )

 cart.    s(23) = (  0.0000000  0.0000000 -1.0000000 )
                  ( -1.0000000  0.0000000  0.0000000 )
                  (  0.0000000  1.0000000  0.0000000 )


      isym = 24     120 deg rotation - cart. axis [-1,-1,1]      

 cryst.   s(24) = (     1         -1          0      )
                  (     0         -1          1      )
                  (     0         -1          0      )

 cart.    s(24) = (  0.0000000  0.0000000 -1.0000000 )
                  (  1.0000000  0.0000000  0.0000000 )
                  (  0.0000000 -1.0000000  0.0000000 )


      isym = 25     inversion                                    

 cryst.   s(25) = (    -1          0          0      )    f =( -0.2500000 )
                  (     0         -1          0      )       ( -0.2500000 )
                  (     0          0         -1      )       ( -0.2500000 )

 cart.    s(25) = ( -1.0000000  0.0000000  0.0000000 )    f =( -0.3535534 )
                  (  0.0000000 -1.0000000  0.0000000 )       ( -0.3535534 )
                  (  0.0000000  0.0000000 -1.0000000 )       ( -0.3535534 )


      isym = 26     inv. 180 deg rotation - cart. axis [0,0,1]   

 cryst.   s(26) = (     1          0          0      )    f =( -0.2500000 )
                  (     1          0         -1      )       ( -0.2500000 )
                  (     1         -1          0      )       ( -0.2500000 )

 cart.    s(26) = (  1.0000000  0.0000000  0.0000000 )    f =( -0.3535534 )
                  (  0.0000000  1.0000000  0.0000000 )       ( -0.3535534 )
                  (  0.0000000  0.0000000 -1.0000000 )       ( -0.3535534 )


      isym = 27     inv. 180 deg rotation - cart. axis [0,1,0]   

 cryst.   s(27) = (     0          1         -1      )    f =( -0.2500000 )
                  (     0          1          0      )       ( -0.2500000 )
                  (    -1          1          0      )       ( -0.2500000 )

 cart.    s(27) = (  1.0000000  0.0000000  0.0000000 )    f =( -0.3535534 )
                  (  0.0000000 -1.0000000  0.0000000 )       ( -0.3535534 )
                  (  0.0000000  0.0000000  1.0000000 )       ( -0.3535534 )


      isym = 28     inv. 180 deg rotation - cart. axis [1,0,0]   

 cryst.   s(28) = (     0         -1          1      )    f =( -0.2500000 )
                  (    -1          0          1      )       ( -0.2500000 )
                  (     0          0          1      )       ( -0.2500000 )

 cart.    s(28) = ( -1.0000000  0.0000000  0.0000000 )    f =( -0.3535534 )
                  (  0.0000000  1.0000000  0.0000000 )       ( -0.3535534 )
                  (  0.0000000  0.0000000  1.0000000 )       ( -0.3535534 )


      isym = 29     inv. 180 deg rotation - cart. axis [1,1,0]   

 cryst.   s(29) = (    -1          0          0      )
                  (    -1          1          0      )
                  (    -1          0          1      )

 cart.    s(29) = (  0.0000000 -1.0000000  0.0000000 )
                  ( -1.0000000  0.0000000  0.0000000 )
                  (  0.0000000  0.0000000  1.0000000 )


      isym = 30     inv. 180 deg rotation - cart. axis [1,-1,0]  

 cryst.   s(30) = (     1          0          0      )
                  (     0          0          1      )
                  (     0          1          0      )

 cart.    s(30) = (  0.0000000  1.0000000  0.0000000 )
                  (  1.0000000  0.0000000  0.0000000 )
                  (  0.0000000  0.0000000  1.0000000 )


      isym = 31     inv.  90 deg rotation - cart. axis [0,0,-1]  

 cryst.   s(31) = (     0         -1          1      )
                  (     1         -1          0      )
                  (     0         -1          0      )

 cart.    s(31) = (  0.0000000 -1.0000000  0.0000000 )
                  (  1.0000000  0.0000000  0.0000000 )
                  (  0.0000000  0.0000000 -1.0000000 )


      isym = 32     inv.  90 deg rotation - cart. axis [0,0,1]   

 cryst.   s(32) = (     0          1         -1      )
                  (     0          0         -1      )
                  (     1          0         -1      )

 cart.    s(32) = (  0.0000000  1.0000000  0.0000000 )
                  ( -1.0000000  0.0000000  0.0000000 )
                  (  0.0000000  0.0000000 -1.0000000 )


      isym = 33     inv. 180 deg rotation - cart. axis [1,0,1]   

 cryst.   s(33) = (     1         -1          0      )
                  (     0         -1          0      )
                  (     0         -1          1      )

 cart.    s(33) = (  0.0000000  0.0000000 -1.0000000 )
                  (  0.0000000  1.0000000  0.0000000 )
                  ( -1.0000000  0.0000000  0.0000000 )


      isym = 34     inv. 180 deg rotation - cart. axis [-1,0,1]  

 cryst.   s(34) = (     0          0          1      )
                  (     0          1          0      )
                  (     1          0          0      )

 cart.    s(34) = (  0.0000000  0.0000000  1.0000000 )
                  (  0.0000000  1.0000000  0.0000000 )
                  (  1.0000000  0.0000000  0.0000000 )


      isym = 35     inv.  90 deg rotation - cart. axis [0,1,0]   

 cryst.   s(35) = (    -1          1          0      )
                  (    -1          0          1      )
                  (    -1          0          0      )

 cart.    s(35) = (  0.0000000  0.0000000 -1.0000000 )
                  (  0.0000000 -1.0000000  0.0000000 )
                  (  1.0000000  0.0000000  0.0000000 )


      isym = 36     inv.  90 deg rotation - cart. axis [0,-1,0]  

 cryst.   s(36) = (     0          0         -1      )
                  (     1          0         -1      )
                  (     0          1         -1      )

 cart.    s(36) = (  0.0000000  0.0000000  1.0000000 )
                  (  0.0000000 -1.0000000  0.0000000 )
                  ( -1.0000000  0.0000000  0.0000000 )


      isym = 37     inv. 180 deg rotation - cart. axis [0,1,1]   

 cryst.   s(37) = (     1          0         -1      )
                  (     0          1         -1      )
                  (     0          0         -1      )

 cart.    s(37) = (  1.0000000  0.0000000  0.0000000 )
                  (  0.0000000  0.0000000 -1.0000000 )
                  (  0.0000000 -1.0000000  0.0000000 )


      isym = 38     inv. 180 deg rotation - cart. axis [0,1,-1]  

 cryst.   s(38) = (     0          1          0      )
                  (     1          0          0      )
                  (     0          0          1      )

 cart.    s(38) = (  1.0000000  0.0000000  0.0000000 )
                  (  0.0000000  0.0000000  1.0000000 )
                  (  0.0000000  1.0000000  0.0000000 )


      isym = 39     inv.  90 deg rotation - cart. axis [-1,0,0]  

 cryst.   s(39) = (    -1          0          1      )
                  (    -1          0          0      )
                  (    -1          1          0      )

 cart.    s(39) = ( -1.0000000  0.0000000  0.0000000 )
                  (  0.0000000  0.0000000 -1.0000000 )
                  (  0.0000000  1.0000000  0.0000000 )


      isym = 40     inv.  90 deg rotation - cart. axis [1,0,0]   

 cryst.   s(40) = (     0         -1          0      )
                  (     0         -1          1      )
                  (     1         -1          0      )

 cart.    s(40) = ( -1.0000000  0.0000000  0.0000000 )
                  (  0.0000000  0.0000000  1.0000000 )
                  (  0.0000000 -1.0000000  0.0000000 )


      isym = 41     inv. 120 deg rotation - cart. axis [-1,-1,-1]

 cryst.   s(41) = (     0         -1          0      )    f =( -0.2500000 )
                  (     0          0         -1      )       ( -0.2500000 )
                  (    -1          0          0      )       ( -0.2500000 )

 cart.    s(41) = (  0.0000000 -1.0000000  0.0000000 )    f =( -0.3535534 )
                  (  0.0000000  0.0000000 -1.0000000 )       ( -0.3535534 )
                  ( -1.0000000  0.0000000  0.0000000 )       ( -0.3535534 )


      isym = 42     inv. 120 deg rotation - cart. axis [-1,1,1]  

 cryst.   s(42) = (     0          1          0      )    f =( -0.2500000 )
                  (    -1          1          0      )       ( -0.2500000 )
                  (     0          1         -1      )       ( -0.2500000 )

 cart.    s(42) = (  0.0000000  1.0000000  0.0000000 )    f =( -0.3535534 )
                  (  0.0000000  0.0000000 -1.0000000 )       ( -0.3535534 )
                  (  1.0000000  0.0000000  0.0000000 )       ( -0.3535534 )


      isym = 43     inv. 120 deg rotation - cart. axis [1,1,-1]  

 cryst.   s(43) = (    -1          0          1      )    f =( -0.2500000 )
                  (     0          0          1      )       ( -0.2500000 )
                  (     0         -1          1      )       ( -0.2500000 )

 cart.    s(43) = (  0.0000000 -1.0000000  0.0000000 )    f =( -0.3535534 )
                  (  0.0000000  0.0000000  1.0000000 )       ( -0.3535534 )
                  (  1.0000000  0.0000000  0.0000000 )       ( -0.3535534 )


      isym = 44     inv. 120 deg rotation - cart. axis [1,-1,1]  

 cryst.   s(44) = (     1          0         -1      )    f =( -0.2500000 )
                  (     1         -1          0      )       ( -0.2500000 )
                  (     1          0          0      )       ( -0.2500000 )

 cart.    s(44) = (  0.0000000  1.0000000  0.0000000 )    f =( -0.3535534 )
                  (  0.0000000  0.0000000  1.0000000 )       ( -0.3535534 )
                  ( -1.0000000  0.0000000  0.0000000 )       ( -0.3535534 )


      isym = 45     inv. 120 deg rotation - cart. axis [1,1,1]   

 cryst.   s(45) = (     0          0         -1      )    f =( -0.2500000 )
                  (    -1          0          0      )       ( -0.2500000 )
                  (     0         -1          0      )       ( -0.2500000 )

 cart.    s(45) = (  0.0000000  0.0000000 -1.0000000 )    f =( -0.3535534 )
                  ( -1.0000000  0.0000000  0.0000000 )       ( -0.3535534 )
                  (  0.0000000 -1.0000000  0.0000000 )       ( -0.3535534 )


      isym = 46     inv. 120 deg rotation - cart. axis [-1,1,-1] 

 cryst.   s(46) = (     0          0          1      )    f =( -0.2500000 )
                  (     0         -1          1      )       ( -0.2500000 )
                  (    -1          0          1      )       ( -0.2500000 )

 cart.    s(46) = (  0.0000000  0.0000000 -1.0000000 )    f =( -0.3535534 )
                  (  1.0000000  0.0000000  0.0000000 )       ( -0.3535534 )
                  (  0.0000000  1.0000000  0.0000000 )       ( -0.3535534 )


      isym = 47     inv. 120 deg rotation - cart. axis [1,-1,-1] 

 cryst.   s(47) = (     1         -1          0      )    f =( -0.2500000 )
                  (     1          0          0      )       ( -0.2500000 )
                  (     1          0         -1      )       ( -0.2500000 )

 cart.    s(47) = (  0.0000000  0.0000000  1.0000000 )    f =( -0.3535534 )
                  (  1.0000000  0.0000000  0.0000000 )       ( -0.3535534 )
                  (  0.0000000 -1.0000000  0.0000000 )       ( -0.3535534 )


      isym = 48     inv. 120 deg rotation - cart. axis [-1,-1,1] 

 cryst.   s(48) = (    -1          1          0      )    f =( -0.2500000 )
                  (     0          1         -1      )       ( -0.2500000 )
                  (     0          1          0      )       ( -0.2500000 )

 cart.    s(48) = (  0.0000000  0.0000000  1.0000000 )    f =( -0.3535534 )
                  ( -1.0000000  0.0000000  0.0000000 )       ( -0.3535534 )
                  (  0.0000000  1.0000000  0.0000000 )       ( -0.3535534 )


   Cartesian axes

     site n.     atom                  positions (alat units)
         1        Si     tau(   1) = (   0.0000000   0.0000000   0.0000000  )
         2        Si     tau(   2) = (   0.3535534   0.3535534   0.3535534  )

   Crystallographic axes

     site n.     atom                  positions (cryst. coord.)
         1        Si     tau(   1) = (  0.0000000  0.0000000  0.0000000  )
         2        Si     tau(   2) = (  0.2500000  0.2500000  0.2500000  )

     number of k points=   104
                       cart. coord. in units 2pi/alat
        k(    1) = (   0.0000000   0.0000000   0.0000000), wk =   0.0007289
        k(    2) = (  -0.0505076   0.0505076   0.0505076), wk =   0.0058309
        k(    3) = (  -0.1010153   0.1010153   0.1010153), wk =   0.0058309
        k(    4) = (  -0.1515229   0.1515229   0.1515229), wk =   0.0058309
        k(    5) = (  -0.2020305   0.2020305   0.2020305), wk =   0.0058309
        k(    6) = (  -0.2525381   0.2525381   0.2525381), wk =   0.0058309
        k(    7) = (  -0.3030458   0.3030458   0.3030458), wk =   0.0058309
        k(    8) = (   0.3535534  -0.3535534  -0.3535534), wk =   0.0029155
        k(    9) = (   0.0000000   0.0000000   0.1010153), wk =   0.0043732
        k(   10) = (  -0.0505076   0.0505076   0.1515229), wk =   0.0174927
        k(   11) = (  -0.1010153   0.1010153   0.2020305), wk =   0.0174927
        k(   12) = (  -0.1515229   0.1515229   0.2525381), wk =   0.0174927
        k(   13) = (  -0.2020305   0.2020305   0.3030458), wk =   0.0174927
        k(   14) = (  -0.2525381   0.2525381   0.3535534), wk =   0.0174927
        k(   15) = (   0.4040610  -0.4040610  -0.3030458), wk =   0.0174927
        k(   16) = (   0.3535534  -0.3535534  -0.2525381), wk =   0.0174927
        k(   17) = (   0.3030458  -0.3030458  -0.2020305), wk =   0.0174927
        k(   18) = (   0.2525381  -0.2525381  -0.1515229), wk =   0.0174927
        k(   19) = (   0.2020305  -0.2020305  -0.1010153), wk =   0.0174927
        k(   20) = (   0.1515229  -0.1515229  -0.0505076), wk =   0.0174927
        k(   21) = (   0.1010153  -0.1010153   0.0000000), wk =   0.0087464
        k(   22) = (   0.0000000   0.0000000   0.2020305), wk =   0.0043732
        k(   23) = (  -0.0505076   0.0505076   0.2525381), wk =   0.0174927
        k(   24) = (  -0.1010153   0.1010153   0.3030458), wk =   0.0174927
        k(   25) = (  -0.1515229   0.1515229   0.3535534), wk =   0.0174927
        k(   26) = (  -0.2020305   0.2020305   0.4040610), wk =   0.0174927
        k(   27) = (   0.4545686  -0.4545686  -0.2525381), wk =   0.0174927
        k(   28) = (   0.4040610  -0.4040610  -0.2020305), wk =   0.0174927
        k(   29) = (   0.3535534  -0.3535534  -0.1515229), wk =   0.0174927
        k(   30) = (   0.3030458  -0.3030458  -0.1010153), wk =   0.0174927
        k(   31) = (   0.2525381  -0.2525381  -0.0505076), wk =   0.0174927
        k(   32) = (   0.2020305  -0.2020305  -0.0000000), wk =   0.0087464
        k(   33) = (   0.0000000   0.0000000   0.3030458), wk =   0.0043732
        k(   34) = (  -0.0505076   0.0505076   0.3535534), wk =   0.0174927
        k(   35) = (  -0.1010153   0.1010153   0.4040610), wk =   0.0174927
        k(   36) = (  -0.1515229   0.1515229   0.4545686), wk =   0.0174927
        k(   37) = (   0.5050763  -0.5050763  -0.2020305), wk =   0.0174927
        k(   38) = (   0.4545686  -0.4545686  -0.1515229), wk =   0.0174927
        k(   39) = (   0.4040610  -0.4040610  -0.1010153), wk =   0.0174927
        k(   40) = (   0.3535534  -0.3535534  -0.0505076), wk =   0.0174927
        k(   41) = (   0.3030458  -0.3030458   0.0000000), wk =   0.0087464
        k(   42) = (   0.0000000   0.0000000   0.4040610), wk =   0.0043732
        k(   43) = (  -0.0505076   0.0505076   0.4545686), wk =   0.0174927
        k(   44) = (  -0.1010153   0.1010153   0.5050763), wk =   0.0174927
        k(   45) = (   0.5555839  -0.5555839  -0.1515229), wk =   0.0174927
        k(   46) = (   0.5050763  -0.5050763  -0.1010153), wk =   0.0174927
        k(   47) = (   0.4545686  -0.4545686  -0.0505076), wk =   0.0174927
        k(   48) = (   0.4040610  -0.4040610   0.0000000), wk =   0.0087464
        k(   49) = (   0.0000000   0.0000000   0.5050763), wk =   0.0043732
        k(   50) = (  -0.0505076   0.0505076   0.5555839), wk =   0.0174927
        k(   51) = (   0.6060915  -0.6060915  -0.1010153), wk =   0.0174927
        k(   52) = (   0.5555839  -0.5555839  -0.0505076), wk =   0.0174927
        k(   53) = (   0.5050763  -0.5050763   0.0000000), wk =   0.0087464
        k(   54) = (   0.0000000   0.0000000   0.6060915), wk =   0.0043732
        k(   55) = (   0.6565992  -0.6565992  -0.0505076), wk =   0.0174927
        k(   56) = (   0.6060915  -0.6060915   0.0000000), wk =   0.0087464
        k(   57) = (   0.0000000   0.0000000  -0.7071068), wk =   0.0021866
        k(   58) = (   0.0000000   0.1010153   0.2020305), wk =   0.0174927
        k(   59) = (  -0.0505076   0.1515229   0.2525381), wk =   0.0349854
        k(   60) = (  -0.1010153   0.2020305   0.3030458), wk =   0.0349854
        k(   61) = (  -0.1515229   0.2525381   0.3535534), wk =   0.0349854
        k(   62) = (   0.5050763  -0.4040610  -0.3030458), wk =   0.0349854
        k(   63) = (   0.4545686  -0.3535534  -0.2525381), wk =   0.0174927
        k(   64) = (   0.0000000   0.1010153   0.3030458), wk =   0.0174927
        k(   65) = (  -0.0505076   0.1515229   0.3535534), wk =   0.0349854
        k(   66) = (  -0.1010153   0.2020305   0.4040610), wk =   0.0349854
        k(   67) = (   0.5555839  -0.4545686  -0.2525381), wk =   0.0349854
        k(   68) = (   0.5050763  -0.4040610  -0.2020305), wk =   0.0349854
        k(   69) = (   0.4545686  -0.3535534  -0.1515229), wk =   0.0349854
        k(   70) = (   0.4040610  -0.3030458  -0.1010153), wk =   0.0349854
        k(   71) = (   0.3535534  -0.2525381  -0.0505076), wk =   0.0349854
        k(   72) = (   0.3030458  -0.2020305  -0.0000000), wk =   0.0174927
        k(   73) = (   0.0000000   0.1010153   0.4040610), wk =   0.0174927
        k(   74) = (  -0.0505076   0.1515229   0.4545686), wk =   0.0349854
        k(   75) = (   0.6060915  -0.5050763  -0.2020305), wk =   0.0349854
        k(   76) = (   0.5555839  -0.4545686  -0.1515229), wk =   0.0349854
        k(   77) = (   0.5050763  -0.4040610  -0.1010153), wk =   0.0349854
        k(   78) = (   0.4545686  -0.3535534  -0.0505076), wk =   0.0349854
        k(   79) = (   0.4040610  -0.3030458   0.0000000), wk =   0.0174927
        k(   80) = (   0.0000000   0.1010153   0.5050763), wk =   0.0174927
        k(   81) = (   0.6565992  -0.5555839  -0.1515229), wk =   0.0349854
        k(   82) = (   0.6060915  -0.5050763  -0.1010153), wk =   0.0349854
        k(   83) = (   0.5555839  -0.4545686  -0.0505076), wk =   0.0349854
        k(   84) = (   0.5050763  -0.4040610   0.0000000), wk =   0.0174927
        k(   85) = (   0.7071068  -0.6060915  -0.1010153), wk =   0.0174927
        k(   86) = (   0.6565992  -0.5555839  -0.0505076), wk =   0.0349854
        k(   87) = (   0.6060915  -0.5050763   0.0000000), wk =   0.0174927
        k(   88) = (   0.0000000   0.1010153  -0.7071068), wk =   0.0087464
        k(   89) = (   0.0000000   0.2020305   0.4040610), wk =   0.0174927
        k(   90) = (   0.6565992  -0.4545686  -0.2525381), wk =   0.0349854
        k(   91) = (   0.6060915  -0.4040610  -0.2020305), wk =   0.0349854
        k(   92) = (   0.5555839  -0.3535534  -0.1515229), wk =   0.0174927
        k(   93) = (   0.7071068  -0.5050763  -0.2020305), wk =   0.0174927
        k(   94) = (   0.6565992  -0.4545686  -0.1515229), wk =   0.0349854
        k(   95) = (   0.6060915  -0.4040610  -0.1010153), wk =   0.0349854
        k(   96) = (   0.5555839  -0.3535534  -0.0505076), wk =   0.0349854
        k(   97) = (   0.5050763  -0.3030458   0.0000000), wk =   0.0174927
        k(   98) = (   0.7071068  -0.5050763  -0.1010153), wk =   0.0174927
        k(   99) = (   0.6565992  -0.4545686  -0.0505076), wk =   0.0349854
        k(  100) = (   0.6060915  -0.4040610   0.0000000), wk =   0.0174927
        k(  101) = (  -0.0000000   0.2020305  -0.7071068), wk =   0.0087464
        k(  102) = (   0.7071068  -0.4040610  -0.1010153), wk =   0.0174927
        k(  103) = (   0.6565992  -0.3535534  -0.0505076), wk =   0.0174927
        k(  104) = (   0.0000000   0.3030458  -0.7071068), wk =   0.0087464

                       cryst. coord.
        k(    1) = (   0.0000000   0.0000000   0.0000000), wk =   0.0007289
        k(    2) = (   0.0000000   0.0000000   0.0714286), wk =   0.0058309
        k(    3) = (   0.0000000   0.0000000   0.1428571), wk =   0.0058309
        k(    4) = (   0.0000000   0.0000000   0.2142857), wk =   0.0058309
        k(    5) = (   0.0000000   0.0000000   0.2857143), wk =   0.0058309
        k(    6) = (   0.0000000   0.0000000   0.3571429), wk =   0.0058309
        k(    7) = (   0.0000000   0.0000000   0.4285714), wk =   0.0058309
        k(    8) = (   0.0000000   0.0000000  -0.5000000), wk =   0.0029155
        k(    9) = (   0.0000000   0.0714286   0.0714286), wk =   0.0043732
        k(   10) = (   0.0000000   0.0714286   0.1428571), wk =   0.0174927
        k(   11) = (   0.0000000   0.0714286   0.2142857), wk =   0.0174927
        k(   12) = (   0.0000000   0.0714286   0.2857143), wk =   0.0174927
        k(   13) = (   0.0000000   0.0714286   0.3571429), wk =   0.0174927
        k(   14) = (   0.0000000   0.0714286   0.4285714), wk =   0.0174927
        k(   15) = (   0.0000000   0.0714286  -0.5000000), wk =   0.0174927
        k(   16) = (   0.0000000   0.0714286  -0.4285714), wk =   0.0174927
        k(   17) = (   0.0000000   0.0714286  -0.3571429), wk =   0.0174927
        k(   18) = (   0.0000000   0.0714286  -0.2857143), wk =   0.0174927
        k(   19) = (   0.0000000   0.0714286  -0.2142857), wk =   0.0174927
        k(   20) = (   0.0000000   0.0714286  -0.1428571), wk =   0.0174927
        k(   21) = (   0.0000000   0.0714286  -0.0714286), wk =   0.0087464
        k(   22) = (   0.0000000   0.1428571   0.1428571), wk =   0.0043732
        k(   23) = (   0.0000000   0.1428571   0.2142857), wk =   0.0174927
        k(   24) = (   0.0000000   0.1428571   0.2857143), wk =   0.0174927
        k(   25) = (   0.0000000   0.1428571   0.3571429), wk =   0.0174927
        k(   26) = (   0.0000000   0.1428571   0.4285714), wk =   0.0174927
        k(   27) = (   0.0000000   0.1428571  -0.5000000), wk =   0.0174927
        k(   28) = (   0.0000000   0.1428571  -0.4285714), wk =   0.0174927
        k(   29) = (   0.0000000   0.1428571  -0.3571429), wk =   0.0174927
        k(   30) = (   0.0000000   0.1428571  -0.2857143), wk =   0.0174927
        k(   31) = (   0.0000000   0.1428571  -0.2142857), wk =   0.0174927
        k(   32) = (   0.0000000   0.1428571  -0.1428571), wk =   0.0087464
        k(   33) = (   0.0000000   0.2142857   0.2142857), wk =   0.0043732
        k(   34) = (   0.0000000   0.2142857   0.2857143), wk =   0.0174927
        k(   35) = (   0.0000000   0.2142857   0.3571429), wk =   0.0174927
        k(   36) = (   0.0000000   0.2142857   0.4285714), wk =   0.0174927
        k(   37) = (   0.0000000   0.2142857  -0.5000000), wk =   0.0174927
        k(   38) = (   0.0000000   0.2142857  -0.4285714), wk =   0.0174927
        k(   39) = (   0.0000000   0.2142857  -0.3571429), wk =   0.0174927
        k(   40) = (   0.0000000   0.2142857  -0.2857143), wk =   0.0174927
        k(   41) = (   0.0000000   0.2142857  -0.2142857), wk =   0.0087464
        k(   42) = (   0.0000000   0.2857143   0.2857143), wk =   0.0043732
        k(   43) = (   0.0000000   0.2857143   0.3571429), wk =   0.0174927
        k(   44) = (   0.0000000   0.2857143   0.4285714), wk =   0.0174927
        k(   45) = (   0.0000000   0.2857143  -0.5000000), wk =   0.0174927
        k(   46) = (   0.0000000   0.2857143  -0.4285714), wk =   0.0174927
        k(   47) = (   0.0000000   0.2857143  -0.3571429), wk =   0.0174927
        k(   48) = (   0.0000000   0.2857143  -0.2857143), wk =   0.0087464
        k(   49) = (   0.0000000   0.3571429   0.3571429), wk =   0.0043732
        k(   50) = (   0.0000000   0.3571429   0.4285714), wk =   0.0174927
        k(   51) = (   0.0000000   0.3571429  -0.5000000), wk =   0.0174927
        k(   52) = (   0.0000000   0.3571429  -0.4285714), wk =   0.0174927
        k(   53) = (   0.0000000   0.3571429  -0.3571429), wk =   0.0087464
        k(   54) = (   0.0000000   0.4285714   0.4285714), wk =   0.0043732
        k(   55) = (   0.0000000   0.4285714  -0.5000000), wk =   0.0174927
        k(   56) = (   0.0000000   0.4285714  -0.4285714), wk =   0.0087464
        k(   57) = (   0.0000000  -0.5000000  -0.5000000), wk =   0.0021866
        k(   58) = (   0.0714286   0.1428571   0.2142857), wk =   0.0174927
        k(   59) = (   0.0714286   0.1428571   0.2857143), wk =   0.0349854
        k(   60) = (   0.0714286   0.1428571   0.3571429), wk =   0.0349854
        k(   61) = (   0.0714286   0.1428571   0.4285714), wk =   0.0349854
        k(   62) = (   0.0714286   0.1428571  -0.5000000), wk =   0.0349854
        k(   63) = (   0.0714286   0.1428571  -0.4285714), wk =   0.0174927
        k(   64) = (   0.0714286   0.2142857   0.2857143), wk =   0.0174927
        k(   65) = (   0.0714286   0.2142857   0.3571429), wk =   0.0349854
        k(   66) = (   0.0714286   0.2142857   0.4285714), wk =   0.0349854
        k(   67) = (   0.0714286   0.2142857  -0.5000000), wk =   0.0349854
        k(   68) = (   0.0714286   0.2142857  -0.4285714), wk =   0.0349854
        k(   69) = (   0.0714286   0.2142857  -0.3571429), wk =   0.0349854
        k(   70) = (   0.0714286   0.2142857  -0.2857143), wk =   0.0349854
        k(   71) = (   0.0714286   0.2142857  -0.2142857), wk =   0.0349854
        k(   72) = (   0.0714286   0.2142857  -0.1428571), wk =   0.0174927
        k(   73) = (   0.0714286   0.2857143   0.3571429), wk =   0.0174927
        k(   74) = (   0.0714286   0.2857143   0.4285714), wk =   0.0349854
        k(   75) = (   0.0714286   0.2857143  -0.5000000), wk =   0.0349854
        k(   76) = (   0.0714286   0.2857143  -0.4285714), wk =   0.0349854
        k(   77) = (   0.0714286   0.2857143  -0.3571429), wk =   0.0349854
        k(   78) = (   0.0714286   0.2857143  -0.2857143), wk =   0.0349854
        k(   79) = (   0.0714286   0.2857143  -0.2142857), wk =   0.0174927
        k(   80) = (   0.0714286   0.3571429   0.4285714), wk =   0.0174927
        k(   81) = (   0.0714286   0.3571429  -0.5000000), wk =   0.0349854
        k(   82) = (   0.0714286   0.3571429  -0.4285714), wk =   0.0349854
        k(   83) = (   0.0714286   0.3571429  -0.3571429), wk =   0.0349854
        k(   84) = (   0.0714286   0.3571429  -0.2857143), wk =   0.0174927
        k(   85) = (   0.0714286   0.4285714  -0.5000000), wk =   0.0174927
        k(   86) = (   0.0714286   0.4285714  -0.4285714), wk =   0.0349854
        k(   87) = (   0.0714286   0.4285714  -0.3571429), wk =   0.0174927
        k(   88) = (   0.0714286  -0.5000000  -0.4285714), wk =   0.0087464
        k(   89) = (   0.1428571   0.2857143   0.4285714), wk =   0.0174927
        k(   90) = (   0.1428571   0.2857143  -0.5000000), wk =   0.0349854
        k(   91) = (   0.1428571   0.2857143  -0.4285714), wk =   0.0349854
        k(   92) = (   0.1428571   0.2857143  -0.3571429), wk =   0.0174927
        k(   93) = (   0.1428571   0.3571429  -0.5000000), wk =   0.0174927
        k(   94) = (   0.1428571   0.3571429  -0.4285714), wk =   0.0349854
        k(   95) = (   0.1428571   0.3571429  -0.3571429), wk =   0.0349854
        k(   96) = (   0.1428571   0.3571429  -0.2857143), wk =   0.0349854
        k(   97) = (   0.1428571   0.3571429  -0.2142857), wk =   0.0174927
        k(   98) = (   0.1428571   0.4285714  -0.4285714), wk =   0.0174927
        k(   99) = (   0.1428571   0.4285714  -0.3571429), wk =   0.0349854
        k(  100) = (   0.1428571   0.4285714  -0.2857143), wk =   0.0174927
        k(  101) = (   0.1428571  -0.5000000  -0.3571429), wk =   0.0087464
        k(  102) = (   0.2142857   0.4285714  -0.3571429), wk =   0.0174927
        k(  103) = (   0.2142857   0.4285714  -0.2857143), wk =   0.0174927
        k(  104) = (   0.2142857  -0.5000000  -0.2857143), wk =   0.0087464

     Dense  grid:    16889 G-vectors     FFT dimensions: (  36,  36,  36)

     Smooth grid:     5985 G-vectors     FFT dimensions: (  32,  32,  32)

     Dynamical RAM for                 wfc:       0.05 MB

     Dynamical RAM for     wfc (w. buffer):       4.81 MB

     Dynamical RAM for           str. fact:       0.26 MB

     Dynamical RAM for           local pot:       0.00 MB

     Dynamical RAM for          nlocal pot:       0.41 MB

     Dynamical RAM for                qrad:       1.24 MB

     Dynamical RAM for          rho,v,vnew:       1.84 MB

     Dynamical RAM for               rhoin:       0.61 MB

     Dynamical RAM for            rho*nmix:       4.12 MB

     Dynamical RAM for           G-vectors:       1.01 MB

     Dynamical RAM for          h,s,v(r/c):       0.00 MB

     Dynamical RAM for          <psi|beta>:       0.00 MB

     Dynamical RAM for                 psi:       0.09 MB

     Dynamical RAM for                hpsi:       0.09 MB

     Dynamical RAM for      wfcinit/wfcrot:       0.18 MB

     Estimated static dynamical RAM per process >      12.48 MB

     Estimated max dynamical RAM per process >      16.79 MB

     Initial potential from superposition of free atoms

     starting charge       7.9988, renormalised to       8.0000
     Starting wfcs are    8 randomized atomic wfcs

     total cpu time spent up to now is        0.7 secs

     Self-consistent Calculation

     iteration #  1     ecut=    30.00 Ry     beta= 0.40
     Davidson diagonalization with overlap

---- Real-time Memory Report at c_bands before calling an iterative solver
            40 MiB given to the printing process from OS
             0 MiB allocation reported by mallinfo(arena+hblkhd)
          4518 MiB available memory on the node where the printing process lives
------------------
     ethr =  1.00E-02,  avg # of iterations =  2.0

     Threshold (ethr) on eigenvalues was too large:
     Diagonalizing with lowered threshold

     Davidson diagonalization with overlap

---- Real-time Memory Report at c_bands before calling an iterative solver
            40 MiB given to the printing process from OS
             0 MiB allocation reported by mallinfo(arena+hblkhd)
          4515 MiB available memory on the node where the printing process lives
------------------
     ethr =  5.57E-04,  avg # of iterations =  2.0

     total cpu time spent up to now is        1.6 secs

     total energy              =     -16.92858820 Ry
     estimated scf accuracy    <       0.05266780 Ry

     iteration #  2     ecut=    30.00 Ry     beta= 0.40
     Davidson diagonalization with overlap

---- Real-time Memory Report at c_bands before calling an iterative solver
            46 MiB given to the printing process from OS
             0 MiB allocation reported by mallinfo(arena+hblkhd)
          4510 MiB available memory on the node where the printing process lives
------------------
     ethr =  6.58E-04,  avg # of iterations =  1.0

     total cpu time spent up to now is        1.9 secs

     total energy              =     -16.92419006 Ry
     estimated scf accuracy    <       0.01616889 Ry

     iteration #  3     ecut=    30.00 Ry     beta= 0.40
     Davidson diagonalization with overlap

---- Real-time Memory Report at c_bands before calling an iterative solver
            47 MiB given to the printing process from OS
             0 MiB allocation reported by mallinfo(arena+hblkhd)
          4510 MiB available memory on the node where the printing process lives
------------------
     ethr =  2.02E-04,  avg # of iterations =  1.9

     total cpu time spent up to now is        2.3 secs

     total energy              =     -16.92576838 Ry
     estimated scf accuracy    <       0.00030893 Ry

     iteration #  4     ecut=    30.00 Ry     beta= 0.40
     Davidson diagonalization with overlap

---- Real-time Memory Report at c_bands before calling an iterative solver
            47 MiB given to the printing process from OS
             0 MiB allocation reported by mallinfo(arena+hblkhd)
          4509 MiB available memory on the node where the printing process lives
------------------
     ethr =  3.86E-06,  avg # of iterations =  3.7

     total cpu time spent up to now is        2.9 secs

     total energy              =     -16.92587125 Ry
     estimated scf accuracy    <       0.00027987 Ry

     iteration #  5     ecut=    30.00 Ry     beta= 0.40
     Davidson diagonalization with overlap

---- Real-time Memory Report at c_bands before calling an iterative solver
            47 MiB given to the printing process from OS
             0 MiB allocation reported by mallinfo(arena+hblkhd)
          4510 MiB available memory on the node where the printing process lives
------------------
     ethr =  3.50E-06,  avg # of iterations =  1.9

     total cpu time spent up to now is        3.3 secs

     total energy              =     -16.92590241 Ry
     estimated scf accuracy    <       0.00000052 Ry

     iteration #  6     ecut=    30.00 Ry     beta= 0.40
     Davidson diagonalization with overlap

---- Real-time Memory Report at c_bands before calling an iterative solver
            48 MiB given to the printing process from OS
             0 MiB allocation reported by mallinfo(arena+hblkhd)
          4509 MiB available memory on the node where the printing process lives
------------------
     ethr =  6.48E-09,  avg # of iterations =  8.0

     total cpu time spent up to now is        4.2 secs

     total energy              =     -16.92590977 Ry
     estimated scf accuracy    <       0.00000314 Ry

     iteration #  7     ecut=    30.00 Ry     beta= 0.40
     Davidson diagonalization with overlap

---- Real-time Memory Report at c_bands before calling an iterative solver
            48 MiB given to the printing process from OS
             0 MiB allocation reported by mallinfo(arena+hblkhd)
          4509 MiB available memory on the node where the printing process lives
------------------
     ethr =  6.48E-09,  avg # of iterations =  1.0

     total cpu time spent up to now is        4.6 secs

     total energy              =     -16.92590996 Ry
     estimated scf accuracy    <       0.00000338 Ry

     iteration #  8     ecut=    30.00 Ry     beta= 0.40
     Davidson diagonalization with overlap

---- Real-time Memory Report at c_bands before calling an iterative solver
            48 MiB given to the printing process from OS
             0 MiB allocation reported by mallinfo(arena+hblkhd)
          4509 MiB available memory on the node where the printing process lives
------------------
     ethr =  6.48E-09,  avg # of iterations =  1.0

     total cpu time spent up to now is        4.9 secs

     total energy              =     -16.92590984 Ry
     estimated scf accuracy    <       0.00000381 Ry

     iteration #  9     ecut=    30.00 Ry     beta= 0.40
     Davidson diagonalization with overlap

---- Real-time Memory Report at c_bands before calling an iterative solver
            48 MiB given to the printing process from OS
             0 MiB allocation reported by mallinfo(arena+hblkhd)
          4509 MiB available memory on the node where the printing process lives
------------------
     ethr =  6.48E-09,  avg # of iterations =  1.0

     total cpu time spent up to now is        5.3 secs

     total energy              =     -16.92590938 Ry
     estimated scf accuracy    <       0.00000346 Ry

     iteration # 10     ecut=    30.00 Ry     beta= 0.40
     Davidson diagonalization with overlap

---- Real-time Memory Report at c_bands before calling an iterative solver
            48 MiB given to the printing process from OS
             0 MiB allocation reported by mallinfo(arena+hblkhd)
          4509 MiB available memory on the node where the printing process lives
------------------
     ethr =  6.48E-09,  avg # of iterations =  1.0

     total cpu time spent up to now is        5.7 secs

     total energy              =     -16.92590926 Ry
     estimated scf accuracy    <       0.00000222 Ry

     iteration # 11     ecut=    30.00 Ry     beta= 0.40
     Davidson diagonalization with overlap

---- Real-time Memory Report at c_bands before calling an iterative solver
            49 MiB given to the printing process from OS
             0 MiB allocation reported by mallinfo(arena+hblkhd)
          4509 MiB available memory on the node where the printing process lives
------------------
     ethr =  6.48E-09,  avg # of iterations =  1.0

     total cpu time spent up to now is        6.0 secs

     total energy              =     -16.92590931 Ry
     estimated scf accuracy    <       0.00000183 Ry

     iteration # 12     ecut=    30.00 Ry     beta= 0.40
     Davidson diagonalization with overlap

---- Real-time Memory Report at c_bands before calling an iterative solver
            49 MiB given to the printing process from OS
             0 MiB allocation reported by mallinfo(arena+hblkhd)
          4509 MiB available memory on the node where the printing process lives
------------------
     ethr =  6.48E-09,  avg # of iterations =  1.0

     total cpu time spent up to now is        6.4 secs

     total energy              =     -16.92590911 Ry
     estimated scf accuracy    <       0.00000197 Ry

     iteration # 13     ecut=    30.00 Ry     beta= 0.40
     Davidson diagonalization with overlap

---- Real-time Memory Report at c_bands before calling an iterative solver
            49 MiB given to the printing process from OS
             0 MiB allocation reported by mallinfo(arena+hblkhd)
          4509 MiB available memory on the node where the printing process lives
------------------
     ethr =  6.48E-09,  avg # of iterations =  1.0

     total cpu time spent up to now is        6.7 secs

     total energy              =     -16.92590934 Ry
     estimated scf accuracy    <       0.00000142 Ry

     iteration # 14     ecut=    30.00 Ry     beta= 0.40
     Davidson diagonalization with overlap

---- Real-time Memory Report at c_bands before calling an iterative solver
            49 MiB given to the printing process from OS
             0 MiB allocation reported by mallinfo(arena+hblkhd)
          4509 MiB available memory on the node where the printing process lives
------------------
     ethr =  6.48E-09,  avg # of iterations =  1.0

     total cpu time spent up to now is        7.1 secs

     total energy              =     -16.92590850 Ry
     estimated scf accuracy    <       0.00000199 Ry

     iteration # 15     ecut=    30.00 Ry     beta= 0.40
     Davidson diagonalization with overlap

---- Real-time Memory Report at c_bands before calling an iterative solver
            49 MiB given to the printing process from OS
             0 MiB allocation reported by mallinfo(arena+hblkhd)
          4509 MiB available memory on the node where the printing process lives
------------------
     ethr =  6.48E-09,  avg # of iterations =  2.0

     total cpu time spent up to now is        7.6 secs

     total energy              =     -16.92590860 Ry
     estimated scf accuracy    <       0.00000008 Ry

     iteration # 16     ecut=    30.00 Ry     beta= 0.40
     Davidson diagonalization with overlap

---- Real-time Memory Report at c_bands before calling an iterative solver
            49 MiB given to the printing process from OS
             0 MiB allocation reported by mallinfo(arena+hblkhd)
          4509 MiB available memory on the node where the printing process lives
------------------
     ethr =  9.74E-10,  avg # of iterations =  2.1

     total cpu time spent up to now is        8.0 secs

     total energy              =     -16.92590862 Ry
     estimated scf accuracy    <          6.7E-10 Ry

     iteration # 17     ecut=    30.00 Ry     beta= 0.40
     Davidson diagonalization with overlap

---- Real-time Memory Report at c_bands before calling an iterative solver
            49 MiB given to the printing process from OS
             0 MiB allocation reported by mallinfo(arena+hblkhd)
          4509 MiB available memory on the node where the printing process lives
------------------
     ethr =  8.34E-12,  avg # of iterations =  5.9

     total cpu time spent up to now is        8.7 secs

     total energy              =     -16.92590862 Ry
     estimated scf accuracy    <          1.0E-09 Ry

     iteration # 18     ecut=    30.00 Ry     beta= 0.40
     Davidson diagonalization with overlap

---- Real-time Memory Report at c_bands before calling an iterative solver
            49 MiB given to the printing process from OS
             0 MiB allocation reported by mallinfo(arena+hblkhd)
          4509 MiB available memory on the node where the printing process lives
------------------
     ethr =  8.34E-12,  avg # of iterations =  2.0

     total cpu time spent up to now is        9.2 secs

     End of self-consistent calculation

          k = 0.0000 0.0000 0.0000 (   749 PWs)   bands (ev):

    -5.8119   6.1789   6.1789   6.1789

     occupation numbers 
     1.0000   1.0000   1.0000   1.0000

          k =-0.0505 0.0505 0.0505 (   737 PWs)   bands (ev):

    -5.7448   5.5031   6.0687   6.0687

     occupation numbers 
     1.0000   1.0000   1.0000   1.0000

          k =-0.1010 0.1010 0.1010 (   743 PWs)   bands (ev):

    -5.5450   4.2271   5.8167   5.8167

     occupation numbers 
     1.0000   1.0000   1.0000   1.0000

          k =-0.1515 0.1515 0.1515 (   757 PWs)   bands (ev):

    -5.2177   2.8776   5.5390   5.5390

     occupation numbers 
     1.0000   1.0000   1.0000   1.0000

          k =-0.2020 0.2020 0.2020 (   757 PWs)   bands (ev):

    -4.7752   1.5934   5.2980   5.2980

     occupation numbers 
     1.0000   1.0000   1.0000   1.0000

          k =-0.2525 0.2525 0.2525 (   757 PWs)   bands (ev):

    -4.2480   0.4477   5.1184   5.1184

     occupation numbers 
     1.0000   1.0000   1.0000   1.0000

          k =-0.3030 0.3030 0.3030 (   760 PWs)   bands (ev):

    -3.7253  -0.4517   5.0091   5.0091

     occupation numbers 
     1.0000   1.0000   1.0000   1.0000

          k = 0.3536-0.3536-0.3536 (   754 PWs)   bands (ev):

    -3.4654  -0.8380   4.9726   4.9726

     occupation numbers 
     1.0000   1.0000   1.0000   1.0000

          k = 0.0000 0.0000 0.1010 (   741 PWs)   bands (ev):

    -5.7224   5.6412   5.8408   5.8408

     occupation numbers 
     1.0000   1.0000   1.0000   1.0000

          k =-0.0505 0.0505 0.1515 (   749 PWs)   bands (ev):

    -5.5666   4.6088   5.5326   5.7189

     occupation numbers 
     1.0000   1.0000   1.0000   1.0000

          k =-0.1010 0.1010 0.2020 (   749 PWs)   bands (ev):

    -5.2811   3.3089   5.2412   5.4680

     occupation numbers 
     1.0000   1.0000   1.0000   1.0000

          k =-0.1515 0.1515 0.2525 (   757 PWs)   bands (ev):

    -4.8753   2.0188   5.0132   5.1666

     occupation numbers 
     1.0000   1.0000   1.0000   1.0000

          k =-0.2020 0.2020 0.3030 (   760 PWs)   bands (ev):

    -4.3710   0.8318   4.8673   4.8885

     occupation numbers 
     1.0000   1.0000   1.0000   1.0000

          k =-0.2525 0.2525 0.3536 (   756 PWs)   bands (ev):

    -3.8292  -0.1616   4.6651   4.8092

     occupation numbers 
     1.0000   1.0000   1.0000   1.0000

          k = 0.4041-0.4041-0.3030 (   751 PWs)   bands (ev):

    -3.4385  -0.7596   4.5113   4.8373

     occupation numbers 
     1.0000   1.0000   1.0000   1.0000

          k = 0.3536-0.3536-0.2525 (   752 PWs)   bands (ev):

    -3.5310  -0.6251   4.4366   4.9460

     occupation numbers 
     1.0000   1.0000   1.0000   1.0000

          k = 0.3030-0.3030-0.2020 (   758 PWs)   bands (ev):

    -4.0075   0.1417   4.4485   5.1267

     occupation numbers 
     1.0000   1.0000   1.0000   1.0000

          k = 0.2525-0.2525-0.1515 (   756 PWs)   bands (ev):

    -4.5483   1.2132   4.5523   5.3665

     occupation numbers 
     1.0000   1.0000   1.0000   1.0000

          k = 0.2020-0.2020-0.1010 (   755 PWs)   bands (ev):

    -5.0235   2.4400   4.7516   5.6441

     occupation numbers 
     1.0000   1.0000   1.0000   1.0000

          k = 0.1515-0.1515-0.0505 (   752 PWs)   bands (ev):

    -5.3907   3.7300   5.0508   5.9162

     occupation numbers 
     1.0000   1.0000   1.0000   1.0000

          k = 0.1010-0.1010 0.0000 (   741 PWs)   bands (ev):

    -5.6334   4.8892   5.4999   6.0948

     occupation numbers 
     1.0000   1.0000   1.0000   1.0000

          k = 0.0000 0.0000 0.2020 (   753 PWs)   bands (ev):

    -5.4548   4.5389   5.1916   5.1916

     occupation numbers 
     1.0000   1.0000   1.0000   1.0000

          k =-0.0505 0.0505 0.2525 (   756 PWs)   bands (ev):

    -5.2122   3.5822   4.8817   4.9392

     occupation numbers 
     1.0000   1.0000   1.0000   1.0000

          k =-0.1010 0.1010 0.3030 (   752 PWs)   bands (ev):

    -4.8456   2.4000   4.6020   4.6458

     occupation numbers 
     1.0000   1.0000   1.0000   1.0000

          k =-0.1515 0.1515 0.3536 (   751 PWs)   bands (ev):

    -4.3709   1.2358   4.2342   4.5024

     occupation numbers 
     1.0000   1.0000   1.0000   1.0000

          k =-0.2020 0.2020 0.4041 (   748 PWs)   bands (ev):

    -3.8299   0.1997   3.9069   4.4581

     occupation numbers 
     1.0000   1.0000   1.0000   1.0000

          k = 0.4546-0.4546-0.2525 (   748 PWs)   bands (ev):

    -3.3523  -0.5495   3.6522   4.5125

     occupation numbers 
     1.0000   1.0000   1.0000   1.0000

          k = 0.4041-0.4041-0.2020 (   749 PWs)   bands (ev):

    -3.2631  -0.6750   3.4880   4.6600

     occupation numbers 
     1.0000   1.0000   1.0000   1.0000

          k = 0.3536-0.3536-0.1515 (   755 PWs)   bands (ev):

    -3.6592  -0.0793   3.4280   4.8891

     occupation numbers 
     1.0000   1.0000   1.0000   1.0000

          k = 0.3030-0.3030-0.1010 (   749 PWs)   bands (ev):

    -4.2013   0.8852   3.4879   5.1803

     occupation numbers 
     1.0000   1.0000   1.0000   1.0000

          k = 0.2525-0.2525-0.0505 (   751 PWs)   bands (ev):

    -4.7036   1.9890   3.7005   5.4988

     occupation numbers 
     1.0000   1.0000   1.0000   1.0000

          k = 0.2020-0.2020-0.0000 (   753 PWs)   bands (ev):

    -5.1072   3.0240   4.1782   5.7801

     occupation numbers 
     1.0000   1.0000   1.0000   1.0000

          k = 0.0000 0.0000 0.3030 (   745 PWs)   bands (ev):

    -5.0123   3.2915   4.5517   4.5517

     occupation numbers 
     1.0000   1.0000   1.0000   1.0000

          k =-0.0505 0.0505 0.3536 (   747 PWs)   bands (ev):

    -4.6862   2.4678   4.1925   4.2967

     occupation numbers 
     1.0000   1.0000   1.0000   1.0000

          k =-0.1010 0.1010 0.4041 (   751 PWs)   bands (ev):

    -4.2456   1.4815   3.7134   4.1375

     occupation numbers 
     1.0000   1.0000   1.0000   1.0000

          k =-0.1515 0.1515 0.4546 (   754 PWs)   bands (ev):

    -3.7191   0.5073   3.2484   4.0828

     occupation numbers 
     1.0000   1.0000   1.0000   1.0000

          k = 0.5051-0.5051-0.2020 (   749 PWs)   bands (ev):

    -3.1934  -0.3020   2.8698   4.1339

     occupation numbers 
     1.0000   1.0000   1.0000   1.0000

          k = 0.4546-0.4546-0.1515 (   753 PWs)   bands (ev):

    -2.9379  -0.6465   2.6070   4.2869

     occupation numbers 
     1.0000   1.0000   1.0000   1.0000

          k = 0.4041-0.4041-0.1010 (   749 PWs)   bands (ev):

    -3.2200  -0.2548   2.4828   4.5310

     occupation numbers 
     1.0000   1.0000   1.0000   1.0000

          k = 0.3536-0.3536-0.0505 (   752 PWs)   bands (ev):

    -3.7480   0.5469   2.5403   4.8460

     occupation numbers 
     1.0000   1.0000   1.0000   1.0000

          k = 0.3030-0.3030 0.0000 (   754 PWs)   bands (ev):

    -4.2693   1.3809   2.8975   5.1932

     occupation numbers 
     1.0000   1.0000   1.0000   1.0000

          k = 0.0000 0.0000 0.4041 (   745 PWs)   bands (ev):

    -4.4003   2.0094   4.0181   4.0181

     occupation numbers 
     1.0000   1.0000   1.0000   1.0000

          k =-0.0505 0.0505 0.4546 (   746 PWs)   bands (ev):

    -3.9961   1.2863   3.6165   3.8348

     occupation numbers 
     1.0000   1.0000   1.0000   1.0000

          k =-0.1010 0.1010 0.5051 (   756 PWs)   bands (ev):

    -3.4932   0.5006   3.0178   3.7575

     occupation numbers 
     1.0000   1.0000   1.0000   1.0000

          k = 0.5556-0.5556-0.1515 (   750 PWs)   bands (ev):

    -2.9486  -0.2337   2.4583   3.7897

     occupation numbers 
     1.0000   1.0000   1.0000   1.0000

          k = 0.5051-0.5051-0.1010 (   750 PWs)   bands (ev):

    -2.5648  -0.6903   2.0500   3.9289

     occupation numbers 
     1.0000   1.0000   1.0000   1.0000

          k = 0.4546-0.4546-0.0505 (   745 PWs)   bands (ev):

    -2.7202  -0.4988   1.8546   4.1665

     occupation numbers 
     1.0000   1.0000   1.0000   1.0000

          k = 0.4041-0.4041 0.0000 (   744 PWs)   bands (ev):

    -3.2211   0.0667   1.9721   4.4843

     occupation numbers 
     1.0000   1.0000   1.0000   1.0000

          k = 0.0000 0.0000 0.5051 (   757 PWs)   bands (ev):

    -3.6276   0.7347   3.6238   3.6238

     occupation numbers 
     1.0000   1.0000   1.0000   1.0000

          k =-0.0505 0.0505 0.5556 (   752 PWs)   bands (ev):

    -3.1533   0.0852   3.2340   3.5186

     occupation numbers 
     1.0000   1.0000   1.0000   1.0000

          k = 0.6061-0.6061-0.1010 (   751 PWs)   bands (ev):

    -2.6094  -0.5421   2.5994   3.5241

     occupation numbers 
     1.0000   1.0000   1.0000   1.0000

          k = 0.5556-0.5556-0.0505 (   744 PWs)   bands (ev):

    -2.1458  -1.0036   2.0311   3.6398

     occupation numbers 
     1.0000   1.0000   1.0000   1.0000

          k = 0.5051-0.5051 0.0000 (   740 PWs)   bands (ev):

    -2.2420  -0.8861   1.7241   3.8590

     occupation numbers 
     1.0000   1.0000   1.0000   1.0000

          k = 0.0000 0.0000 0.6061 (   749 PWs)   bands (ev):

    -2.7067  -0.4983   3.3832   3.3832

     occupation numbers 
     1.0000   1.0000   1.0000   1.0000

          k = 0.6566-0.6566-0.0505 (   751 PWs)   bands (ev):

    -2.1750  -1.0824   3.0438   3.3585

     occupation numbers 
     1.0000   1.0000   1.0000   1.0000

          k = 0.6061-0.6061 0.0000 (   752 PWs)   bands (ev):

    -1.7482  -1.4626   2.4625   3.4456

     occupation numbers 
     1.0000   1.0000   1.0000   1.0000

          k = 0.0000 0.0000-0.7071 (   740 PWs)   bands (ev):

    -1.6555  -1.6555   3.3023   3.3023

     occupation numbers 
     1.0000   1.0000   1.0000   1.0000

          k = 0.0000 0.1010 0.2020 (   756 PWs)   bands (ev):

    -5.3675   3.9118   4.8441   5.6355

     occupation numbers 
     1.0000   1.0000   1.0000   1.0000

          k =-0.0505 0.1515 0.2525 (   757 PWs)   bands (ev):

    -5.0414   2.8138   4.3681   5.4266

     occupation numbers 
     1.0000   1.0000   1.0000   1.0000

          k =-0.1010 0.2020 0.3030 (   756 PWs)   bands (ev):

    -4.6003   1.6213   4.0903   5.1430

     occupation numbers 
     1.0000   1.0000   1.0000   1.0000

          k =-0.1515 0.2525 0.3536 (   757 PWs)   bands (ev):

    -4.0738   0.5168   3.9258   4.8820

     occupation numbers 
     1.0000   1.0000   1.0000   1.0000

          k = 0.5051-0.4041-0.3030 (   755 PWs)   bands (ev):

    -3.5497  -0.3655   3.8437   4.6998

     occupation numbers 
     1.0000   1.0000   1.0000   1.0000

          k = 0.4546-0.3536-0.2525 (   752 PWs)   bands (ev):

    -3.2873  -0.7488   3.8201   4.6339

     occupation numbers 
     1.0000   1.0000   1.0000   1.0000

          k = 0.0000 0.1010 0.3030 (   755 PWs)   bands (ev):

    -4.9282   2.8781   4.2013   4.8578

     occupation numbers 
     1.0000   1.0000   1.0000   1.0000

          k =-0.0505 0.1515 0.3536 (   754 PWs)   bands (ev):

    -4.5245   1.9060   3.7240   4.6245

     occupation numbers 
     1.0000   1.0000   1.0000   1.0000

          k =-0.1010 0.2020 0.4041 (   753 PWs)   bands (ev):

    -4.0220   0.8697   3.4103   4.3793

     occupation numbers 
     1.0000   1.0000   1.0000   1.0000

          k = 0.5556-0.4546-0.2525 (   750 PWs)   bands (ev):

    -3.4793  -0.0522   3.1798   4.2357

     occupation numbers 
     1.0000   1.0000   1.0000   1.0000

          k = 0.5051-0.4041-0.2020 (   750 PWs)   bands (ev):

    -3.0848  -0.6235   3.0103   4.2337

     occupation numbers 
     1.0000   1.0000   1.0000   1.0000

          k = 0.4546-0.3536-0.1515 (   750 PWs)   bands (ev):

    -3.1847  -0.4828   2.9165   4.3670

     occupation numbers 
     1.0000   1.0000   1.0000   1.0000

          k = 0.4041-0.3030-0.1010 (   754 PWs)   bands (ev):

    -3.6677   0.2514   2.9287   4.6086

     occupation numbers 
     1.0000   1.0000   1.0000   1.0000

          k = 0.3536-0.2525-0.0505 (   750 PWs)   bands (ev):

    -4.2071   1.2110   3.0958   4.9185

     occupation numbers 
     1.0000   1.0000   1.0000   1.0000

          k = 0.3030-0.2020-0.0000 (   750 PWs)   bands (ev):

    -4.6783   2.1401   3.5334   5.2303

     occupation numbers 
     1.0000   1.0000   1.0000   1.0000

          k = 0.0000 0.1010 0.4041 (   748 PWs)   bands (ev):

    -4.3217   1.7855   3.6730   4.1296

     occupation numbers 
     1.0000   1.0000   1.0000   1.0000

          k =-0.0505 0.1515 0.4546 (   754 PWs)   bands (ev):

    -3.8496   0.9683   3.1723   3.9032

     occupation numbers 
     1.0000   1.0000   1.0000   1.0000

          k = 0.6061-0.5051-0.2020 (   748 PWs)   bands (ev):

    -3.3088   0.1400   2.7295   3.7820

     occupation numbers 
     1.0000   1.0000   1.0000   1.0000

          k = 0.5556-0.4546-0.1515 (   745 PWs)   bands (ev):

    -2.8271  -0.5066   2.3824   3.8082

     occupation numbers 
     1.0000   1.0000   1.0000   1.0000

          k = 0.5051-0.4041-0.1010 (   746 PWs)   bands (ev):

    -2.7554  -0.5900   2.1702   3.9671

     occupation numbers 
     1.0000   1.0000   1.0000   1.0000

          k = 0.4546-0.3536-0.0505 (   750 PWs)   bands (ev):

    -3.1744  -0.0460   2.1435   4.2342

     occupation numbers 
     1.0000   1.0000   1.0000   1.0000

          k = 0.4041-0.3030 0.0000 (   754 PWs)   bands (ev):

    -3.7148   0.6584   2.4090   4.5735

     occupation numbers 
     1.0000   1.0000   1.0000   1.0000

          k = 0.0000 0.1010 0.5051 (   753 PWs)   bands (ev):

    -3.5579   0.6413   3.2954   3.5729

     occupation numbers 
     1.0000   1.0000   1.0000   1.0000

          k = 0.6566-0.5556-0.1515 (   746 PWs)   bands (ev):

    -3.0328  -0.0319   2.7544   3.4220

     occupation numbers 
     1.0000   1.0000   1.0000   1.0000

          k = 0.6061-0.5051-0.1010 (   743 PWs)   bands (ev):

    -2.5034  -0.6297   2.2061   3.4492

     occupation numbers 
     1.0000   1.0000   1.0000   1.0000

          k = 0.5556-0.4546-0.0505 (   745 PWs)   bands (ev):

    -2.2889  -0.8441   1.8394   3.6096

     occupation numbers 
     1.0000   1.0000   1.0000   1.0000

          k = 0.5051-0.4041 0.0000 (   736 PWs)   bands (ev):

    -2.6481  -0.4761   1.7750   3.8814

     occupation numbers 
     1.0000   1.0000   1.0000   1.0000

          k = 0.7071-0.6061-0.1010 (   749 PWs)   bands (ev):

    -2.6519  -0.5134   3.0863   3.2161

     occupation numbers 
     1.0000   1.0000   1.0000   1.0000

          k = 0.6566-0.5556-0.0505 (   746 PWs)   bands (ev):

    -2.1038  -1.0642   2.5288   3.1935

     occupation numbers 
     1.0000   1.0000   1.0000   1.0000

          k = 0.6061-0.5051 0.0000 (   743 PWs)   bands (ev):

    -1.8755  -1.2412   2.0150   3.3438

     occupation numbers 
     1.0000   1.0000   1.0000   1.0000

          k = 0.0000 0.1010-0.7071 (   758 PWs)   bands (ev):

    -1.6262  -1.6262   3.0568   3.0568

     occupation numbers 
     1.0000   1.0000   1.0000   1.0000

          k = 0.0000 0.2020 0.4041 (   753 PWs)   bands (ev):

    -4.0894   1.2662   3.0181   4.3681

     occupation numbers 
     1.0000   1.0000   1.0000   1.0000

          k = 0.6566-0.4546-0.2525 (   751 PWs)   bands (ev):

    -3.5672   0.4732   2.6201   4.0551

     occupation numbers 
     1.0000   1.0000   1.0000   1.0000

          k = 0.6061-0.4041-0.2020 (   750 PWs)   bands (ev):

    -3.0385  -0.2789   2.4438   3.8212

     occupation numbers 
     1.0000   1.0000   1.0000   1.0000

          k = 0.5556-0.3536-0.1515 (   742 PWs)   bands (ev):

    -2.7650  -0.6358   2.3956   3.7355

     occupation numbers 
     1.0000   1.0000   1.0000   1.0000

          k = 0.7071-0.5051-0.2020 (   757 PWs)   bands (ev):

    -3.3549   0.3670   2.6747   3.5493

     occupation numbers 
     1.0000   1.0000   1.0000   1.0000

          k = 0.6566-0.4546-0.1515 (   747 PWs)   bands (ev):

    -2.8117  -0.2720   2.3008   3.2902

     occupation numbers 
     1.0000   1.0000   1.0000   1.0000

          k = 0.6061-0.4041-0.1010 (   743 PWs)   bands (ev):

    -2.4042  -0.7279   2.0496   3.2376

     occupation numbers 
     1.0000   1.0000   1.0000   1.0000

          k = 0.5556-0.3536-0.0505 (   746 PWs)   bands (ev):

    -2.5372  -0.5772   1.9603   3.3830

     occupation numbers 
     1.0000   1.0000   1.0000   1.0000

          k = 0.5051-0.3030 0.0000 (   745 PWs)   bands (ev):

    -3.0386  -0.0357   2.1200   3.6788

     occupation numbers 
     1.0000   1.0000   1.0000   1.0000

          k = 0.7071-0.5051-0.1010 (   744 PWs)   bands (ev):

    -2.4981  -0.5820   2.5302   2.9465

     occupation numbers 
     1.0000   1.0000   1.0000   1.0000

          k = 0.6566-0.4546-0.0505 (   745 PWs)   bands (ev):

    -2.0028  -1.0512   2.1465   2.8509

     occupation numbers 
     1.0000   1.0000   1.0000   1.0000

          k = 0.6061-0.4041 0.0000 (   737 PWs)   bands (ev):

    -2.0542  -0.9825   1.8765   3.0394

     occupation numbers 
     1.0000   1.0000   1.0000   1.0000

          k =-0.0000 0.2020-0.7071 (   742 PWs)   bands (ev):

    -1.5561  -1.5561   2.6112   2.6112

     occupation numbers 
     1.0000   1.0000   1.0000   1.0000

          k = 0.7071-0.4041-0.1010 (   745 PWs)   bands (ev):

    -2.2799  -0.7421   2.0730   2.8643

     occupation numbers 
     1.0000   1.0000   1.0000   1.0000

          k = 0.6566-0.3536-0.0505 (   742 PWs)   bands (ev):

    -1.9521  -1.0508   2.0161   2.6930

     occupation numbers 
     1.0000   1.0000   1.0000   1.0000

          k = 0.0000 0.3030-0.7071 (   742 PWs)   bands (ev):

    -1.4954  -1.4954   2.3124   2.3124

     occupation numbers 
     1.0000   1.0000   1.0000   1.0000

     highest occupied level (ev):     6.1789

!    total energy              =     -16.92590862 Ry
     estimated scf accuracy    <          5.5E-11 Ry

     The total energy is the sum of the following terms:
     one-electron contribution =       4.94363877 Ry
     hartree contribution      =       1.07470061 Ry
     xc contribution           =      -6.14827372 Ry
     ewald contribution        =     -16.79597428 Ry

     convergence has been achieved in  18 iterations

     Forces acting on atoms (cartesian axes, Ry/au):

     atom    1 type  1   force =     0.00000000    0.00000000    0.00000000
     atom    2 type  1   force =     0.00000000    0.00000000    0.00000000
     The non-local contrib.  to forces
     atom    1 type  1   force =     0.00000000   -0.00000000    0.00000000
     atom    2 type  1   force =     0.00000000   -0.00000000    0.00000000
     The ionic contribution  to forces
     atom    1 type  1   force =     0.00000000    0.00000000    0.00000000
     atom    2 type  1   force =    -0.00000000   -0.00000000   -0.00000000
     The local contribution  to forces
     atom    1 type  1   force =     0.00000000   -0.00000000    0.00000000
     atom    2 type  1   force =    -0.00000000   -0.00000000   -0.00000000
     The core correction contribution to forces
     atom    1 type  1   force =     0.00000000    0.00000000    0.00000000
     atom    2 type  1   force =     0.00000000    0.00000000    0.00000000
     The Hubbard contrib.    to forces
     atom    1 type  1   force =     0.00000000    0.00000000    0.00000000
     atom    2 type  1   force =     0.00000000    0.00000000    0.00000000
     The SCF correction term to forces
     atom    1 type  1   force =    -0.00000000   -0.00000000   -0.00000000
     atom    2 type  1   force =    -0.00000000   -0.00000000   -0.00000000

     Total force =     0.000000     Total SCF correction =     0.000000


     Computing stress (Cartesian axis) and pressure

          total   stress  (Ry/bohr**3)                   (kbar)     P=       -0.29
  -0.00000200  -0.00000000  -0.00000000           -0.29       -0.00       -0.00
  -0.00000000  -0.00000200  -0.00000000           -0.00       -0.29       -0.00
  -0.00000000  -0.00000000  -0.00000200           -0.00       -0.00       -0.29

     kinetic stress (kbar)   2220.91     -0.00     -0.00
                               -0.00   2220.91      0.00
                               -0.00      0.00   2220.91

     local   stress (kbar)   -282.13      0.00      0.00
                                0.00   -282.13      0.00
                                0.00      0.00   -282.13

     nonloc. stress (kbar)   1866.84     -0.00     -0.00
                               -0.00   1866.84      0.00
                                0.00      0.00   1866.84

     hartree stress (kbar)    195.00      0.00      0.00
                                0.00    195.00      0.00
                                0.00      0.00    195.00

     exc-cor stress (kbar)   -165.66      0.00      0.00
                                0.00   -165.66     -0.00
                                0.00     -0.00   -165.66

     corecor stress (kbar)   -787.74      0.00      0.00
                                0.00   -787.74      0.00
                                0.00      0.00   -787.74

     ewald   stress (kbar)  -3047.51     -0.00      0.00
                               -0.00  -3047.51     -0.00
                                0.00     -0.00  -3047.51

     hubbard stress (kbar)      0.00      0.00      0.00
                                0.00      0.00      0.00
                                0.00      0.00      0.00

     DFT-D   stress (kbar)      0.00      0.00      0.00
                                0.00      0.00      0.00
                                0.00      0.00      0.00

     XDM     stress (kbar)      0.00      0.00      0.00
                                0.00      0.00      0.00
                                0.00      0.00      0.00

     dft-nl  stress (kbar)      0.00      0.00      0.00
                                0.00      0.00      0.00
                                0.00      0.00      0.00

     TS-vdW  stress (kbar)      0.00      0.00      0.00
                                0.00      0.00      0.00
                                0.00      0.00      0.00

     MDB     stress (kbar)      0.00      0.00      0.00
                                0.00      0.00      0.00
                                0.00      0.00      0.00

     3D-RISM stress (kbar)      0.00      0.00      0.00
                                0.00      0.00      0.00
                                0.00      0.00      0.00


     Writing all to output data dir ./out/aiida.save/ :
     XML data file, charge density, pseudopotentials, collected wavefunctions

     init_run     :      0.65s CPU      0.67s WALL (       1 calls)
     electrons    :      8.40s CPU      8.47s WALL (       1 calls)
     forces       :      0.07s CPU      0.07s WALL (       1 calls)
     stress       :      0.35s CPU      0.35s WALL (       1 calls)

     Called by init_run:
     wfcinit      :      0.33s CPU      0.34s WALL (       1 calls)
     wfcinit:atom :      0.01s CPU      0.01s WALL (     104 calls)
     wfcinit:wfcr :      0.30s CPU      0.31s WALL (     104 calls)
     potinit      :      0.12s CPU      0.12s WALL (       1 calls)
     hinit0       :      0.18s CPU      0.19s WALL (       1 calls)

     Called by electrons:
     c_bands      :      7.08s CPU      7.14s WALL (      19 calls)
     sum_band     :      1.10s CPU      1.11s WALL (      19 calls)
     v_of_rho     :      0.19s CPU      0.19s WALL (      19 calls)
     v_h          :      0.01s CPU      0.01s WALL (      19 calls)
     v_xc         :      0.21s CPU      0.21s WALL (      21 calls)
     mix_rho      :      0.02s CPU      0.02s WALL (      19 calls)

     Called by c_bands:
     init_us_2    :      0.48s CPU      0.49s WALL (    4264 calls)
     cegterg      :      5.96s CPU      6.01s WALL (    1976 calls)

     Called by sum_band:
     sum_band:wei :      0.00s CPU      0.00s WALL (      19 calls)
     sum_band:loo :      1.07s CPU      1.08s WALL (      19 calls)
     sum_band:buf :      0.01s CPU      0.01s WALL (    1976 calls)
     sum_band:ini :      0.22s CPU      0.22s WALL (    1976 calls)

     Called by *egterg:
     cdiaghg      :      0.07s CPU      0.07s WALL (    6085 calls)
     cegterg:over :      0.12s CPU      0.12s WALL (    4213 calls)
     cegterg:upda :      0.07s CPU      0.07s WALL (    4213 calls)
     cegterg:last :      0.09s CPU      0.09s WALL (    3895 calls)
     h_psi        :      5.78s CPU      5.84s WALL (    6293 calls)
     g_psi        :      0.03s CPU      0.03s WALL (    4213 calls)

     Called by h_psi:
     h_psi:calbec :      0.45s CPU      0.45s WALL (    6293 calls)
     vloc_psi     :      4.92s CPU      4.97s WALL (    6293 calls)
     add_vuspsi   :      0.39s CPU      0.40s WALL (    6293 calls)

     General routines
     calbec       :      0.49s CPU      0.49s WALL (    6813 calls)
     fft          :      0.19s CPU      0.19s WALL (     251 calls)
     ffts         :      0.10s CPU      0.10s WALL (      38 calls)
     fftw         :      4.94s CPU      4.99s WALL (   53070 calls)
     interpolate  :      0.10s CPU      0.10s WALL (      19 calls)

     Parallel routines

     PWSCF        :      9.50s CPU      9.59s WALL


   This run was terminated on:   9:41: 4   5Aug2024            

=------------------------------------------------------------------------------=
   JOB DONE.
=------------------------------------------------------------------------------=
