
     Program PROJWFC v.7.3.1 starts on 10Sep2024 at 11:17:17 

     This program is part of the open-source Quantum ESPRESSO suite
     for quantum simulation of materials; please cite
         "P. Giannozzi et al., J. Phys.:Condens. Matter 21 395502 (2009);
         "P. Giannozzi et al., J. Phys.:Condens. Matter 29 465901 (2017);
         "P. Giannozzi et al., J. Chem. Phys. 152 154105 (2020);
          URL http://www.quantum-espresso.org", 
     in publications or presentations arising from this work. More details at
     http://www.quantum-espresso.org/quote

     Parallel version (MPI), running on     1 processors

     MPI processes distributed on     1 nodes
     3998 MiB available memory on the printing compute node when the environment starts


     Reading xml data from directory:

     ./out/si_lda.save/
     Message from routine volume:
     axis vectors are left-handed

     IMPORTANT: XC functional enforced from input :
     Exchange-correlation= PW
                           (   1   4   0   0   0   0   0)
     Any further DFT definition will be discarded
     Please, verify this is what you really want


     G-vector sticks info
     --------------------
     sticks:   dense  smooth     PW     G-vecs:    dense   smooth      PW
     Sum         433     433    139                 5985     5985    1067

     Using Slab Decomposition


     Gaussian broadening (read from input): ngauss,degauss=   0    0.010000


     Calling projwave .... 
     Subspace diagonalization in iterative solution of the eigenvalue problem:
     a serial algorithm will be used


  Problem Sizes 
  natomwfc =            8
  nbnd     =            4
  nkstot   =           54
  npwx     =          757
  nkb      =           36


     Atomic states used for projection
     (read from pseudopotential files):

     state #   1: atom   1 (Si ), wfc  1 (l=0 m= 1)
     state #   2: atom   1 (Si ), wfc  2 (l=1 m= 1)
     state #   3: atom   1 (Si ), wfc  2 (l=1 m= 2)
     state #   4: atom   1 (Si ), wfc  2 (l=1 m= 3)
     state #   5: atom   2 (Si ), wfc  1 (l=0 m= 1)
     state #   6: atom   2 (Si ), wfc  2 (l=1 m= 1)
     state #   7: atom   2 (Si ), wfc  2 (l=1 m= 2)
     state #   8: atom   2 (Si ), wfc  2 (l=1 m= 3)

 k =   0.0000000000  0.0000000000  0.0000000000
==== e(   1) =    -5.84727 eV ==== 
     psi = 0.498*[#   1]+0.498*[#   5]
    |psi|^2 = 0.997
==== e(   2) =     6.14238 eV ==== 
     psi = 0.145*[#   4]+0.145*[#   8]+0.104*[#   3]+0.104*[#   7]
    |psi|^2 = 0.498
==== e(   3) =     6.14238 eV ==== 
     psi = 0.249*[#   4]+0.249*[#   8]+0.232*[#   2]+0.232*[#   6]+0.012*[#   3]
          +0.012*[#   7]
    |psi|^2 = 0.987
==== e(   4) =     6.14238 eV ==== 
     psi = 0.365*[#   3]+0.365*[#   7]+0.104*[#   2]+0.104*[#   6]+0.087*[#   4]
          +0.087*[#   8]
    |psi|^2 = 1.111

 k =  -0.2357022604  0.2357022604  0.2357022604
==== e(   1) =    -4.46596 eV ==== 
     psi = 0.359*[#   1]+0.359*[#   5]+0.046*[#   2]+0.046*[#   3]+0.046*[#   4]
          +0.046*[#   6]+0.046*[#   7]+0.046*[#   8]
    |psi|^2 = 0.996
==== e(   2) =     0.76162 eV ==== 
     psi = 0.149*[#   1]+0.149*[#   5]+0.115*[#   3]+0.115*[#   4]+0.115*[#   7]
          +0.115*[#   8]+0.046*[#   2]+0.046*[#   6]
    |psi|^2 = 0.851
==== e(   3) =     5.13338 eV ==== 
     psi = 0.115*[#   2]+0.115*[#   6]+0.097*[#   4]+0.097*[#   8]+0.068*[#   3]
          +0.068*[#   7]
    |psi|^2 = 0.562
==== e(   4) =     5.13338 eV ==== 
     psi = 0.260*[#   3]+0.260*[#   7]+0.231*[#   4]+0.231*[#   8]+0.115*[#   2]
          +0.115*[#   6]
    |psi|^2 = 1.212

 k =   0.2357022604 -0.2357022604 -0.2357022604
==== e(   1) =    -4.46596 eV ==== 
     psi = 0.359*[#   1]+0.359*[#   5]+0.046*[#   2]+0.046*[#   3]+0.046*[#   4]
          +0.046*[#   6]+0.046*[#   7]+0.046*[#   8]
    |psi|^2 = 0.996
==== e(   2) =     0.76162 eV ==== 
     psi = 0.149*[#   1]+0.149*[#   5]+0.115*[#   3]+0.115*[#   4]+0.115*[#   7]
          +0.115*[#   8]+0.046*[#   2]+0.046*[#   6]
    |psi|^2 = 0.851
==== e(   3) =     5.13338 eV ==== 
     psi = 0.115*[#   2]+0.115*[#   6]+0.097*[#   4]+0.097*[#   8]+0.068*[#   3]
          +0.068*[#   7]
    |psi|^2 = 0.562
==== e(   4) =     5.13338 eV ==== 
     psi = 0.260*[#   3]+0.260*[#   7]+0.231*[#   4]+0.231*[#   8]+0.115*[#   2]
          +0.115*[#   6]
    |psi|^2 = 1.212

 k =   0.2357022604 -0.2357022604  0.2357022604
==== e(   1) =    -4.46596 eV ==== 
     psi = 0.359*[#   1]+0.359*[#   5]+0.046*[#   2]+0.046*[#   3]+0.046*[#   4]
          +0.046*[#   6]+0.046*[#   7]+0.046*[#   8]
    |psi|^2 = 0.996
==== e(   2) =     0.76161 eV ==== 
     psi = 0.149*[#   1]+0.149*[#   5]+0.115*[#   3]+0.115*[#   4]+0.115*[#   7]
          +0.115*[#   8]+0.046*[#   2]+0.046*[#   6]
    |psi|^2 = 0.851
==== e(   3) =     5.13338 eV ==== 
     psi = 0.156*[#   4]+0.156*[#   8]+0.115*[#   2]+0.115*[#   6]+0.057*[#   3]
          +0.057*[#   7]
    |psi|^2 = 0.655
==== e(   4) =     5.13338 eV ==== 
     psi = 0.272*[#   3]+0.272*[#   7]+0.173*[#   4]+0.173*[#   8]+0.115*[#   2]
          +0.115*[#   6]
    |psi|^2 = 1.119

 k =   0.0000000000  0.0000000000  0.4714045208
==== e(   1) =    -3.93961 eV ==== 
     psi = 0.315*[#   1]+0.315*[#   5]+0.183*[#   2]+0.183*[#   6]
    |psi|^2 = 0.995
==== e(   2) =     1.11050 eV ==== 
     psi = 0.242*[#   1]+0.242*[#   5]
    |psi|^2 = 0.484
==== e(   3) =     3.69971 eV ==== 
     psi = 0.463*[#   8]+0.462*[#   3]+0.253*[#   2]+0.253*[#   6]+0.035*[#   4]
          +0.034*[#   7]
    |psi|^2 = 1.500
==== e(   4) =     3.69971 eV ==== 
     psi = 0.463*[#   7]+0.462*[#   4]+0.035*[#   3]+0.034*[#   8]
    |psi|^2 = 0.993

 k =   0.4714045208 -0.4714045208 -0.0000000000
==== e(   1) =    -2.56935 eV ==== 
     psi = 0.326*[#   1]+0.326*[#   5]+0.073*[#   2]+0.073*[#   6]+0.050*[#   3]
          +0.050*[#   4]+0.050*[#   7]+0.050*[#   8]
    |psi|^2 = 0.996
==== e(   2) =    -0.65248 eV ==== 
     psi = 0.238*[#   1]+0.238*[#   5]+0.050*[#   2]+0.050*[#   6]+0.040*[#   3]
          +0.040*[#   4]+0.040*[#   7]+0.040*[#   8]
    |psi|^2 = 0.734
==== e(   3) =     1.65451 eV ==== 
     psi = 0.180*[#   2]+0.180*[#   6]+0.146*[#   3]+0.146*[#   4]+0.146*[#   7]
          +0.146*[#   8]+0.008*[#   1]+0.008*[#   5]
    |psi|^2 = 0.958
==== e(   4) =     4.01008 eV ==== 
     psi = 0.248*[#   3]+0.248*[#   4]+0.248*[#   7]+0.248*[#   8]+0.040*[#   2]
          +0.040*[#   6]
    |psi|^2 = 1.072

 k =  -0.2357022604  0.2357022604 -0.2357022604
==== e(   1) =    -4.46596 eV ==== 
     psi = 0.359*[#   1]+0.359*[#   5]+0.046*[#   2]+0.046*[#   3]+0.046*[#   4]
          +0.046*[#   6]+0.046*[#   7]+0.046*[#   8]
    |psi|^2 = 0.996
==== e(   2) =     0.76161 eV ==== 
     psi = 0.149*[#   1]+0.149*[#   5]+0.115*[#   3]+0.115*[#   4]+0.115*[#   7]
          +0.115*[#   8]+0.046*[#   2]+0.046*[#   6]
    |psi|^2 = 0.851
==== e(   3) =     5.13338 eV ==== 
     psi = 0.156*[#   4]+0.156*[#   8]+0.115*[#   2]+0.115*[#   6]+0.057*[#   3]
          +0.057*[#   7]
    |psi|^2 = 0.655
==== e(   4) =     5.13338 eV ==== 
     psi = 0.272*[#   3]+0.272*[#   7]+0.173*[#   4]+0.173*[#   8]+0.115*[#   2]
          +0.115*[#   6]
    |psi|^2 = 1.119

 k =  -0.4714045208  0.4714045208 -0.0000000000
==== e(   1) =    -2.56935 eV ==== 
     psi = 0.326*[#   1]+0.326*[#   5]+0.073*[#   2]+0.073*[#   6]+0.050*[#   3]
          +0.050*[#   4]+0.050*[#   7]+0.050*[#   8]
    |psi|^2 = 0.996
==== e(   2) =    -0.65248 eV ==== 
     psi = 0.238*[#   1]+0.238*[#   5]+0.050*[#   2]+0.050*[#   6]+0.040*[#   3]
          +0.040*[#   4]+0.040*[#   7]+0.040*[#   8]
    |psi|^2 = 0.734
==== e(   3) =     1.65451 eV ==== 
     psi = 0.180*[#   2]+0.180*[#   6]+0.146*[#   3]+0.146*[#   4]+0.146*[#   7]
          +0.146*[#   8]+0.008*[#   1]+0.008*[#   5]
    |psi|^2 = 0.958
==== e(   4) =     4.01008 eV ==== 
     psi = 0.248*[#   3]+0.248*[#   4]+0.248*[#   7]+0.248*[#   8]+0.040*[#   2]
          +0.040*[#   6]
    |psi|^2 = 1.072

 k =   0.0000000000  0.0000000000 -0.4714045208
==== e(   1) =    -3.93961 eV ==== 
     psi = 0.315*[#   1]+0.315*[#   5]+0.183*[#   2]+0.183*[#   6]
    |psi|^2 = 0.995
==== e(   2) =     1.11050 eV ==== 
     psi = 0.242*[#   1]+0.242*[#   5]
    |psi|^2 = 0.484
==== e(   3) =     3.69971 eV ==== 
     psi = 0.463*[#   8]+0.462*[#   3]+0.253*[#   2]+0.253*[#   6]+0.035*[#   4]
          +0.034*[#   7]
    |psi|^2 = 1.500
==== e(   4) =     3.69971 eV ==== 
     psi = 0.463*[#   7]+0.462*[#   4]+0.035*[#   3]+0.034*[#   8]
    |psi|^2 = 0.993

 k =   0.2357022604  0.2357022604 -0.2357022604
==== e(   1) =    -4.46596 eV ==== 
     psi = 0.359*[#   1]+0.359*[#   5]+0.046*[#   2]+0.046*[#   3]+0.046*[#   4]
          +0.046*[#   6]+0.046*[#   7]+0.046*[#   8]
    |psi|^2 = 0.996
==== e(   2) =     0.76162 eV ==== 
     psi = 0.149*[#   1]+0.149*[#   5]+0.115*[#   3]+0.115*[#   4]+0.115*[#   7]
          +0.115*[#   8]+0.046*[#   2]+0.046*[#   6]
    |psi|^2 = 0.851
==== e(   3) =     5.13338 eV ==== 
     psi = 0.325*[#   3]+0.325*[#   7]+0.115*[#   2]+0.115*[#   6]+0.063*[#   4]
          +0.063*[#   8]
    |psi|^2 = 1.007
==== e(   4) =     5.13338 eV ==== 
     psi = 0.265*[#   4]+0.265*[#   8]+0.115*[#   2]+0.115*[#   6]+0.003*[#   3]
          +0.003*[#   7]
    |psi|^2 = 0.767

 k =   0.0000000000  0.4714045208  0.0000000000
==== e(   1) =    -3.93961 eV ==== 
     psi = 0.315*[#   1]+0.315*[#   5]+0.183*[#   4]+0.183*[#   8]
    |psi|^2 = 0.995
==== e(   2) =     1.11050 eV ==== 
     psi = 0.253*[#   4]+0.253*[#   8]+0.242*[#   1]+0.242*[#   5]
    |psi|^2 = 0.990
==== e(   3) =     3.69971 eV ==== 
     psi = 0.249*[#   7]+0.240*[#   3]
    |psi|^2 = 0.489
==== e(   4) =     3.69971 eV ==== 
     psi = 0.257*[#   3]+0.247*[#   7]
    |psi|^2 = 0.504

 k =   0.4714045208 -0.0000000000 -0.4714045208
==== e(   1) =    -2.56935 eV ==== 
     psi = 0.326*[#   1]+0.326*[#   5]+0.073*[#   4]+0.073*[#   8]+0.050*[#   2]
          +0.050*[#   3]+0.050*[#   6]+0.050*[#   7]
    |psi|^2 = 0.996
==== e(   2) =    -0.65248 eV ==== 
     psi = 0.238*[#   1]+0.238*[#   5]+0.180*[#   4]+0.180*[#   8]+0.050*[#   2]
          +0.050*[#   6]+0.040*[#   3]+0.040*[#   7]
    |psi|^2 = 1.014
==== e(   3) =     1.65451 eV ==== 
     psi = 0.198*[#   4]+0.198*[#   8]+0.146*[#   3]+0.146*[#   7]+0.040*[#   2]
          +0.040*[#   6]+0.008*[#   1]+0.008*[#   5]
    |psi|^2 = 0.782
==== e(   4) =     4.01008 eV ==== 
     psi = 0.248*[#   3]+0.248*[#   7]+0.040*[#   2]+0.040*[#   6]
    |psi|^2 = 0.575

 k =   0.4714045208  0.0000000000  0.0000000000
==== e(   1) =    -3.93961 eV ==== 
     psi = 0.315*[#   1]+0.315*[#   5]+0.183*[#   3]+0.183*[#   7]
    |psi|^2 = 0.995
==== e(   2) =     1.11050 eV ==== 
     psi = 0.253*[#   3]+0.253*[#   7]+0.242*[#   1]+0.242*[#   5]+0.183*[#   2]
          +0.183*[#   6]
    |psi|^2 = 1.356
==== e(   3) =     3.69971 eV ==== 
     psi = 0.475*[#   8]+0.020*[#   4]
    |psi|^2 = 0.495
==== e(   4) =     3.69971 eV ==== 
     psi = 0.477*[#   4]+0.253*[#   2]+0.253*[#   6]+0.022*[#   8]
    |psi|^2 = 1.005

 k =   0.2357022604  0.2357022604  0.2357022604
==== e(   1) =    -4.46596 eV ==== 
     psi = 0.359*[#   1]+0.359*[#   5]+0.046*[#   2]+0.046*[#   3]+0.046*[#   4]
          +0.046*[#   6]+0.046*[#   7]+0.046*[#   8]
    |psi|^2 = 0.996
==== e(   2) =     0.76162 eV ==== 
     psi = 0.149*[#   1]+0.149*[#   5]+0.115*[#   3]+0.115*[#   4]+0.115*[#   7]
          +0.115*[#   8]+0.046*[#   2]+0.046*[#   6]
    |psi|^2 = 0.851
==== e(   3) =     5.13338 eV ==== 
     psi = 0.310*[#   4]+0.310*[#   8]+0.115*[#   2]+0.115*[#   6]+0.060*[#   3]
          +0.060*[#   7]
    |psi|^2 = 0.971
==== e(   4) =     5.13338 eV ==== 
     psi = 0.268*[#   3]+0.268*[#   7]+0.115*[#   2]+0.115*[#   6]+0.018*[#   4]
          +0.018*[#   8]
    |psi|^2 = 0.803

 k =   0.7071067812 -0.2357022604 -0.2357022604
==== e(   1) =    -2.56935 eV ==== 
     psi = 0.326*[#   1]+0.326*[#   5]+0.073*[#   3]+0.073*[#   7]+0.050*[#   2]
          +0.050*[#   4]+0.050*[#   6]+0.050*[#   8]
    |psi|^2 = 0.996
==== e(   2) =    -0.65248 eV ==== 
     psi = 0.238*[#   1]+0.238*[#   5]+0.180*[#   3]+0.180*[#   7]+0.073*[#   2]
          +0.073*[#   6]+0.040*[#   4]+0.040*[#   8]
    |psi|^2 = 1.060
==== e(   3) =     1.65451 eV ==== 
     psi = 0.198*[#   3]+0.198*[#   7]+0.146*[#   4]+0.146*[#   8]+0.040*[#   2]
          +0.040*[#   6]+0.008*[#   1]+0.008*[#   5]
    |psi|^2 = 0.782
==== e(   4) =     4.01008 eV ==== 
     psi = 0.248*[#   4]+0.248*[#   8]+0.180*[#   2]+0.180*[#   6]
    |psi|^2 = 0.856

 k =  -0.0000000000  0.4714045208 -0.4714045208
==== e(   1) =    -2.56935 eV ==== 
     psi = 0.326*[#   1]+0.326*[#   5]+0.073*[#   3]+0.073*[#   7]+0.050*[#   2]
          +0.050*[#   4]+0.050*[#   6]+0.050*[#   8]
    |psi|^2 = 0.996
==== e(   2) =    -0.65249 eV ==== 
     psi = 0.238*[#   1]+0.238*[#   5]+0.180*[#   3]+0.180*[#   7]+0.073*[#   2]
          +0.073*[#   6]+0.040*[#   4]+0.040*[#   8]
    |psi|^2 = 1.060
==== e(   3) =     1.65451 eV ==== 
     psi = 0.198*[#   3]+0.198*[#   7]+0.146*[#   4]+0.146*[#   8]+0.040*[#   2]
          +0.040*[#   6]+0.008*[#   1]+0.008*[#   5]
    |psi|^2 = 0.782
==== e(   4) =     4.01008 eV ==== 
     psi = 0.248*[#   4]+0.248*[#   8]+0.180*[#   2]+0.180*[#   6]
    |psi|^2 = 0.856

 k =  -0.2357022604  0.7071067812 -0.2357022604
==== e(   1) =    -2.56935 eV ==== 
     psi = 0.326*[#   1]+0.326*[#   5]+0.073*[#   4]+0.073*[#   8]+0.050*[#   2]
          +0.050*[#   3]+0.050*[#   6]+0.050*[#   7]
    |psi|^2 = 0.996
==== e(   2) =    -0.65249 eV ==== 
     psi = 0.238*[#   1]+0.238*[#   5]+0.180*[#   4]+0.180*[#   8]+0.050*[#   2]
          +0.050*[#   6]+0.040*[#   3]+0.040*[#   7]
    |psi|^2 = 1.014
==== e(   3) =     1.65451 eV ==== 
     psi = 0.198*[#   4]+0.198*[#   8]+0.146*[#   3]+0.146*[#   7]+0.040*[#   2]
          +0.040*[#   6]+0.008*[#   1]+0.008*[#   5]
    |psi|^2 = 0.782
==== e(   4) =     4.01008 eV ==== 
     psi = 0.248*[#   3]+0.248*[#   7]+0.040*[#   2]+0.040*[#   6]
    |psi|^2 = 0.575

 k =   0.2357022604  0.2357022604 -0.7071067812
==== e(   1) =    -2.56935 eV ==== 
     psi = 0.326*[#   1]+0.326*[#   5]+0.073*[#   2]+0.073*[#   6]+0.050*[#   3]
          +0.050*[#   4]+0.050*[#   7]+0.050*[#   8]
    |psi|^2 = 0.996
==== e(   2) =    -0.65248 eV ==== 
     psi = 0.238*[#   1]+0.238*[#   5]+0.050*[#   2]+0.050*[#   6]+0.040*[#   3]
          +0.040*[#   4]+0.040*[#   7]+0.040*[#   8]
    |psi|^2 = 0.734
==== e(   3) =     1.65451 eV ==== 
     psi = 0.180*[#   2]+0.180*[#   6]+0.146*[#   3]+0.146*[#   4]+0.146*[#   7]
          +0.146*[#   8]+0.008*[#   1]+0.008*[#   5]
    |psi|^2 = 0.958
==== e(   4) =     4.01008 eV ==== 
     psi = 0.248*[#   3]+0.248*[#   4]+0.248*[#   7]+0.248*[#   8]+0.040*[#   2]
          +0.040*[#   6]
    |psi|^2 = 1.072

 k =  -0.2357022604 -0.2357022604  0.2357022604
==== e(   1) =    -4.46596 eV ==== 
     psi = 0.359*[#   1]+0.359*[#   5]+0.046*[#   2]+0.046*[#   3]+0.046*[#   4]
          +0.046*[#   6]+0.046*[#   7]+0.046*[#   8]
    |psi|^2 = 0.996
==== e(   2) =     0.76162 eV ==== 
     psi = 0.149*[#   1]+0.149*[#   5]+0.115*[#   3]+0.115*[#   4]+0.115*[#   7]
          +0.115*[#   8]+0.046*[#   2]+0.046*[#   6]
    |psi|^2 = 0.851
==== e(   3) =     5.13338 eV ==== 
     psi = 0.325*[#   3]+0.325*[#   7]+0.115*[#   2]+0.115*[#   6]+0.063*[#   4]
          +0.063*[#   8]
    |psi|^2 = 1.007
==== e(   4) =     5.13338 eV ==== 
     psi = 0.265*[#   4]+0.265*[#   8]+0.115*[#   2]+0.115*[#   6]+0.003*[#   3]
          +0.003*[#   7]
    |psi|^2 = 0.767

 k =  -0.4714045208 -0.0000000000  0.4714045208
==== e(   1) =    -2.56935 eV ==== 
     psi = 0.326*[#   1]+0.326*[#   5]+0.073*[#   4]+0.073*[#   8]+0.050*[#   2]
          +0.050*[#   3]+0.050*[#   6]+0.050*[#   7]
    |psi|^2 = 0.996
==== e(   2) =    -0.65248 eV ==== 
     psi = 0.238*[#   1]+0.238*[#   5]+0.180*[#   4]+0.180*[#   8]+0.050*[#   2]
          +0.050*[#   6]+0.040*[#   3]+0.040*[#   7]
    |psi|^2 = 1.014
==== e(   3) =     1.65451 eV ==== 
     psi = 0.198*[#   4]+0.198*[#   8]+0.146*[#   3]+0.146*[#   7]+0.040*[#   2]
          +0.040*[#   6]+0.008*[#   1]+0.008*[#   5]
    |psi|^2 = 0.782
==== e(   4) =     4.01008 eV ==== 
     psi = 0.248*[#   3]+0.248*[#   7]+0.040*[#   2]+0.040*[#   6]
    |psi|^2 = 0.575

 k =   0.0000000000 -0.4714045208  0.0000000000
==== e(   1) =    -3.93961 eV ==== 
     psi = 0.315*[#   1]+0.315*[#   5]+0.183*[#   4]+0.183*[#   8]
    |psi|^2 = 0.995
==== e(   2) =     1.11050 eV ==== 
     psi = 0.253*[#   4]+0.253*[#   8]+0.242*[#   1]+0.242*[#   5]
    |psi|^2 = 0.990
==== e(   3) =     3.69971 eV ==== 
     psi = 0.249*[#   7]+0.240*[#   3]
    |psi|^2 = 0.489
==== e(   4) =     3.69971 eV ==== 
     psi = 0.257*[#   3]+0.247*[#   7]
    |psi|^2 = 0.504

 k =  -0.0000000000 -0.4714045208  0.4714045208
==== e(   1) =    -2.56935 eV ==== 
     psi = 0.326*[#   1]+0.326*[#   5]+0.073*[#   3]+0.073*[#   7]+0.050*[#   2]
          +0.050*[#   4]+0.050*[#   6]+0.050*[#   8]
    |psi|^2 = 0.996
==== e(   2) =    -0.65249 eV ==== 
     psi = 0.238*[#   1]+0.238*[#   5]+0.180*[#   3]+0.180*[#   7]+0.073*[#   2]
          +0.073*[#   6]+0.040*[#   4]+0.040*[#   8]
    |psi|^2 = 1.060
==== e(   3) =     1.65451 eV ==== 
     psi = 0.198*[#   3]+0.198*[#   7]+0.146*[#   4]+0.146*[#   8]+0.040*[#   2]
          +0.040*[#   6]+0.008*[#   1]+0.008*[#   5]
    |psi|^2 = 0.782
==== e(   4) =     4.01008 eV ==== 
     psi = 0.248*[#   4]+0.248*[#   8]+0.180*[#   2]+0.180*[#   6]
    |psi|^2 = 0.856

 k =  -0.2357022604 -0.2357022604  0.7071067812
==== e(   1) =    -2.56935 eV ==== 
     psi = 0.326*[#   1]+0.326*[#   5]+0.073*[#   2]+0.073*[#   6]+0.050*[#   3]
          +0.050*[#   4]+0.050*[#   7]+0.050*[#   8]
    |psi|^2 = 0.996
==== e(   2) =    -0.65248 eV ==== 
     psi = 0.238*[#   1]+0.238*[#   5]+0.050*[#   2]+0.050*[#   6]+0.040*[#   3]
          +0.040*[#   4]+0.040*[#   7]+0.040*[#   8]
    |psi|^2 = 0.734
==== e(   3) =     1.65451 eV ==== 
     psi = 0.180*[#   2]+0.180*[#   6]+0.146*[#   3]+0.146*[#   4]+0.146*[#   7]
          +0.146*[#   8]+0.008*[#   1]+0.008*[#   5]
    |psi|^2 = 0.958
==== e(   4) =     4.01008 eV ==== 
     psi = 0.248*[#   3]+0.248*[#   4]+0.248*[#   7]+0.248*[#   8]+0.040*[#   2]
          +0.040*[#   6]
    |psi|^2 = 1.072

 k =   0.2357022604 -0.7071067812  0.2357022604
==== e(   1) =    -2.56935 eV ==== 
     psi = 0.326*[#   1]+0.326*[#   5]+0.073*[#   4]+0.073*[#   8]+0.050*[#   2]
          +0.050*[#   3]+0.050*[#   6]+0.050*[#   7]
    |psi|^2 = 0.996
==== e(   2) =    -0.65249 eV ==== 
     psi = 0.238*[#   1]+0.238*[#   5]+0.180*[#   4]+0.180*[#   8]+0.050*[#   2]
          +0.050*[#   6]+0.040*[#   3]+0.040*[#   7]
    |psi|^2 = 1.014
==== e(   3) =     1.65451 eV ==== 
     psi = 0.198*[#   4]+0.198*[#   8]+0.146*[#   3]+0.146*[#   7]+0.040*[#   2]
          +0.040*[#   6]+0.008*[#   1]+0.008*[#   5]
    |psi|^2 = 0.782
==== e(   4) =     4.01008 eV ==== 
     psi = 0.248*[#   3]+0.248*[#   7]+0.040*[#   2]+0.040*[#   6]
    |psi|^2 = 0.575

 k =  -0.4714045208  0.0000000000  0.0000000000
==== e(   1) =    -3.93961 eV ==== 
     psi = 0.315*[#   1]+0.315*[#   5]+0.183*[#   3]+0.183*[#   7]
    |psi|^2 = 0.995
==== e(   2) =     1.11050 eV ==== 
     psi = 0.253*[#   3]+0.253*[#   7]+0.242*[#   1]+0.242*[#   5]+0.183*[#   2]
          +0.183*[#   6]
    |psi|^2 = 1.356
==== e(   3) =     3.69971 eV ==== 
     psi = 0.475*[#   8]+0.020*[#   4]
    |psi|^2 = 0.495
==== e(   4) =     3.69971 eV ==== 
     psi = 0.477*[#   4]+0.253*[#   2]+0.253*[#   6]+0.022*[#   8]
    |psi|^2 = 1.005

 k =  -0.7071067812  0.2357022604  0.2357022604
==== e(   1) =    -2.56935 eV ==== 
     psi = 0.326*[#   1]+0.326*[#   5]+0.073*[#   3]+0.073*[#   7]+0.050*[#   2]
          +0.050*[#   4]+0.050*[#   6]+0.050*[#   8]
    |psi|^2 = 0.996
==== e(   2) =    -0.65248 eV ==== 
     psi = 0.238*[#   1]+0.238*[#   5]+0.180*[#   3]+0.180*[#   7]+0.073*[#   2]
          +0.073*[#   6]+0.040*[#   4]+0.040*[#   8]
    |psi|^2 = 1.060
==== e(   3) =     1.65451 eV ==== 
     psi = 0.198*[#   3]+0.198*[#   7]+0.146*[#   4]+0.146*[#   8]+0.040*[#   2]
          +0.040*[#   6]+0.008*[#   1]+0.008*[#   5]
    |psi|^2 = 0.782
==== e(   4) =     4.01008 eV ==== 
     psi = 0.248*[#   4]+0.248*[#   8]+0.180*[#   2]+0.180*[#   6]
    |psi|^2 = 0.856

 k =  -0.2357022604 -0.2357022604 -0.2357022604
==== e(   1) =    -4.46596 eV ==== 
     psi = 0.359*[#   1]+0.359*[#   5]+0.046*[#   2]+0.046*[#   3]+0.046*[#   4]
          +0.046*[#   6]+0.046*[#   7]+0.046*[#   8]
    |psi|^2 = 0.996
==== e(   2) =     0.76162 eV ==== 
     psi = 0.149*[#   1]+0.149*[#   5]+0.115*[#   3]+0.115*[#   4]+0.115*[#   7]
          +0.115*[#   8]+0.046*[#   2]+0.046*[#   6]
    |psi|^2 = 0.851
==== e(   3) =     5.13338 eV ==== 
     psi = 0.310*[#   4]+0.310*[#   8]+0.115*[#   2]+0.115*[#   6]+0.060*[#   3]
          +0.060*[#   7]
    |psi|^2 = 0.971
==== e(   4) =     5.13338 eV ==== 
     psi = 0.268*[#   3]+0.268*[#   7]+0.115*[#   2]+0.115*[#   6]+0.018*[#   4]
          +0.018*[#   8]
    |psi|^2 = 0.803

 k =   0.0000000000  0.0000000000  0.0000000000
==== e(   1) =    -5.84727 eV ==== 
     psi = 0.498*[#   1]+0.498*[#   5]
    |psi|^2 = 0.997
==== e(   2) =     6.14238 eV ==== 
     psi = 0.257*[#   4]+0.257*[#   8]+0.034*[#   3]+0.034*[#   7]
    |psi|^2 = 0.581
==== e(   3) =     6.14238 eV ==== 
     psi = 0.447*[#   3]+0.447*[#   7]+0.191*[#   2]+0.191*[#   6]+0.023*[#   4]
          +0.023*[#   8]
    |psi|^2 = 1.322
==== e(   4) =     6.14238 eV ==== 
     psi = 0.201*[#   4]+0.201*[#   8]+0.034*[#   2]+0.034*[#   6]
    |psi|^2 = 0.470

 k =  -0.2357022604  0.2357022604  0.2357022604
==== e(   1) =    -4.46596 eV ==== 
     psi = 0.359*[#   1]+0.359*[#   5]+0.046*[#   2]+0.046*[#   3]+0.046*[#   4]
          +0.046*[#   6]+0.046*[#   7]+0.046*[#   8]
    |psi|^2 = 0.996
==== e(   2) =     0.76162 eV ==== 
     psi = 0.149*[#   1]+0.149*[#   5]+0.115*[#   3]+0.115*[#   4]+0.115*[#   7]
          +0.115*[#   8]+0.046*[#   2]+0.046*[#   6]
    |psi|^2 = 0.851
==== e(   3) =     5.13338 eV ==== 
     psi = 0.226*[#   4]+0.226*[#   8]+0.115*[#   2]+0.115*[#   6]+0.022*[#   3]
          +0.022*[#   7]
    |psi|^2 = 0.725
==== e(   4) =     5.13338 eV ==== 
     psi = 0.306*[#   3]+0.306*[#   7]+0.115*[#   2]+0.115*[#   6]+0.103*[#   4]
          +0.103*[#   8]
    |psi|^2 = 1.049

 k =   0.2357022604 -0.2357022604 -0.2357022604
==== e(   1) =    -4.46596 eV ==== 
     psi = 0.359*[#   1]+0.359*[#   5]+0.046*[#   2]+0.046*[#   3]+0.046*[#   4]
          +0.046*[#   6]+0.046*[#   7]+0.046*[#   8]
    |psi|^2 = 0.996
==== e(   2) =     0.76162 eV ==== 
     psi = 0.149*[#   1]+0.149*[#   5]+0.115*[#   3]+0.115*[#   4]+0.115*[#   7]
          +0.115*[#   8]+0.046*[#   2]+0.046*[#   6]
    |psi|^2 = 0.851
==== e(   3) =     5.13338 eV ==== 
     psi = 0.226*[#   4]+0.226*[#   8]+0.115*[#   2]+0.115*[#   6]+0.022*[#   3]
          +0.022*[#   7]
    |psi|^2 = 0.725
==== e(   4) =     5.13338 eV ==== 
     psi = 0.306*[#   3]+0.306*[#   7]+0.115*[#   2]+0.115*[#   6]+0.103*[#   4]
          +0.103*[#   8]
    |psi|^2 = 1.049

 k =   0.2357022604 -0.2357022604  0.2357022604
==== e(   1) =    -4.46596 eV ==== 
     psi = 0.359*[#   1]+0.359*[#   5]+0.046*[#   2]+0.046*[#   3]+0.046*[#   4]
          +0.046*[#   6]+0.046*[#   7]+0.046*[#   8]
    |psi|^2 = 0.996
==== e(   2) =     0.76161 eV ==== 
     psi = 0.149*[#   1]+0.149*[#   5]+0.115*[#   3]+0.115*[#   4]+0.115*[#   7]
          +0.115*[#   8]+0.046*[#   2]+0.046*[#   6]
    |psi|^2 = 0.851
==== e(   3) =     5.13338 eV ==== 
     psi = 0.308*[#   3]+0.308*[#   7]+0.158*[#   4]+0.158*[#   8]+0.115*[#   2]
          +0.115*[#   6]
    |psi|^2 = 1.162
==== e(   4) =     5.13338 eV ==== 
     psi = 0.170*[#   4]+0.170*[#   8]+0.115*[#   2]+0.115*[#   6]+0.020*[#   3]
          +0.020*[#   7]
    |psi|^2 = 0.612

 k =   0.0000000000  0.0000000000  0.4714045208
==== e(   1) =    -3.93961 eV ==== 
     psi = 0.315*[#   1]+0.315*[#   5]+0.183*[#   2]+0.183*[#   6]
    |psi|^2 = 0.995
==== e(   2) =     1.11050 eV ==== 
     psi = 0.242*[#   1]+0.242*[#   5]
    |psi|^2 = 0.484
==== e(   3) =     3.69971 eV ==== 
     psi = 0.302*[#   3]+0.296*[#   8]+0.253*[#   2]+0.253*[#   6]+0.200*[#   7]
          +0.195*[#   4]
    |psi|^2 = 1.500
==== e(   4) =     3.69971 eV ==== 
     psi = 0.302*[#   4]+0.296*[#   7]+0.200*[#   8]+0.195*[#   3]
    |psi|^2 = 0.993

 k =   0.4714045208 -0.4714045208 -0.0000000000
==== e(   1) =    -2.56935 eV ==== 
     psi = 0.326*[#   1]+0.326*[#   5]+0.073*[#   2]+0.073*[#   6]+0.050*[#   3]
          +0.050*[#   4]+0.050*[#   7]+0.050*[#   8]
    |psi|^2 = 0.996
==== e(   2) =    -0.65249 eV ==== 
     psi = 0.238*[#   1]+0.238*[#   5]+0.050*[#   2]+0.050*[#   6]+0.040*[#   3]
          +0.040*[#   4]+0.040*[#   7]+0.040*[#   8]
    |psi|^2 = 0.734
==== e(   3) =     1.65451 eV ==== 
     psi = 0.180*[#   2]+0.180*[#   6]+0.146*[#   3]+0.146*[#   4]+0.146*[#   7]
          +0.146*[#   8]+0.008*[#   1]+0.008*[#   5]
    |psi|^2 = 0.958
==== e(   4) =     4.01008 eV ==== 
     psi = 0.248*[#   3]+0.248*[#   4]+0.248*[#   7]+0.248*[#   8]+0.040*[#   2]
          +0.040*[#   6]
    |psi|^2 = 1.072

 k =  -0.2357022604  0.2357022604 -0.2357022604
==== e(   1) =    -4.46596 eV ==== 
     psi = 0.359*[#   1]+0.359*[#   5]+0.046*[#   2]+0.046*[#   3]+0.046*[#   4]
          +0.046*[#   6]+0.046*[#   7]+0.046*[#   8]
    |psi|^2 = 0.996
==== e(   2) =     0.76161 eV ==== 
     psi = 0.149*[#   1]+0.149*[#   5]+0.115*[#   3]+0.115*[#   4]+0.115*[#   7]
          +0.115*[#   8]+0.046*[#   2]+0.046*[#   6]
    |psi|^2 = 0.851
==== e(   3) =     5.13338 eV ==== 
     psi = 0.308*[#   3]+0.308*[#   7]+0.158*[#   4]+0.158*[#   8]+0.115*[#   2]
          +0.115*[#   6]
    |psi|^2 = 1.162
==== e(   4) =     5.13338 eV ==== 
     psi = 0.170*[#   4]+0.170*[#   8]+0.115*[#   2]+0.115*[#   6]+0.020*[#   3]
          +0.020*[#   7]
    |psi|^2 = 0.612

 k =  -0.4714045208  0.4714045208 -0.0000000000
==== e(   1) =    -2.56935 eV ==== 
     psi = 0.326*[#   1]+0.326*[#   5]+0.073*[#   2]+0.073*[#   6]+0.050*[#   3]
          +0.050*[#   4]+0.050*[#   7]+0.050*[#   8]
    |psi|^2 = 0.996
==== e(   2) =    -0.65249 eV ==== 
     psi = 0.238*[#   1]+0.238*[#   5]+0.050*[#   2]+0.050*[#   6]+0.040*[#   3]
          +0.040*[#   4]+0.040*[#   7]+0.040*[#   8]
    |psi|^2 = 0.734
==== e(   3) =     1.65451 eV ==== 
     psi = 0.180*[#   2]+0.180*[#   6]+0.146*[#   3]+0.146*[#   4]+0.146*[#   7]
          +0.146*[#   8]+0.008*[#   1]+0.008*[#   5]
    |psi|^2 = 0.958
==== e(   4) =     4.01008 eV ==== 
     psi = 0.248*[#   3]+0.248*[#   4]+0.248*[#   7]+0.248*[#   8]+0.040*[#   2]
          +0.040*[#   6]
    |psi|^2 = 1.072

 k =   0.0000000000  0.0000000000 -0.4714045208
==== e(   1) =    -3.93961 eV ==== 
     psi = 0.315*[#   1]+0.315*[#   5]+0.183*[#   2]+0.183*[#   6]
    |psi|^2 = 0.995
==== e(   2) =     1.11050 eV ==== 
     psi = 0.242*[#   1]+0.242*[#   5]
    |psi|^2 = 0.484
==== e(   3) =     3.69971 eV ==== 
     psi = 0.302*[#   3]+0.296*[#   8]+0.253*[#   2]+0.253*[#   6]+0.200*[#   7]
          +0.195*[#   4]
    |psi|^2 = 1.500
==== e(   4) =     3.69971 eV ==== 
     psi = 0.302*[#   4]+0.296*[#   7]+0.200*[#   8]+0.195*[#   3]
    |psi|^2 = 0.993

 k =   0.2357022604  0.2357022604 -0.2357022604
==== e(   1) =    -4.46596 eV ==== 
     psi = 0.359*[#   1]+0.359*[#   5]+0.046*[#   2]+0.046*[#   3]+0.046*[#   4]
          +0.046*[#   6]+0.046*[#   7]+0.046*[#   8]
    |psi|^2 = 0.996
==== e(   2) =     0.76162 eV ==== 
     psi = 0.149*[#   1]+0.149*[#   5]+0.115*[#   3]+0.115*[#   4]+0.115*[#   7]
          +0.115*[#   8]+0.046*[#   2]+0.046*[#   6]
    |psi|^2 = 0.851
==== e(   3) =     5.13338 eV ==== 
     psi = 0.325*[#   3]+0.325*[#   7]+0.115*[#   2]+0.115*[#   6]+0.063*[#   4]
          +0.063*[#   8]
    |psi|^2 = 1.005
==== e(   4) =     5.13338 eV ==== 
     psi = 0.266*[#   4]+0.266*[#   8]+0.115*[#   2]+0.115*[#   6]+0.004*[#   3]
          +0.004*[#   7]
    |psi|^2 = 0.769

 k =   0.0000000000  0.4714045208  0.0000000000
==== e(   1) =    -3.93961 eV ==== 
     psi = 0.315*[#   1]+0.315*[#   5]+0.183*[#   4]+0.183*[#   8]
    |psi|^2 = 0.995
==== e(   2) =     1.11050 eV ==== 
     psi = 0.253*[#   4]+0.253*[#   8]+0.242*[#   1]+0.242*[#   5]
    |psi|^2 = 0.990
==== e(   3) =     3.69971 eV ==== 
     psi = 0.471*[#   7]+0.031*[#   3]
    |psi|^2 = 0.501
==== e(   4) =     3.69971 eV ==== 
     psi = 0.466*[#   3]+0.026*[#   7]
    |psi|^2 = 0.492

 k =   0.4714045208 -0.0000000000 -0.4714045208
==== e(   1) =    -2.56935 eV ==== 
     psi = 0.326*[#   1]+0.326*[#   5]+0.073*[#   4]+0.073*[#   8]+0.050*[#   2]
          +0.050*[#   3]+0.050*[#   6]+0.050*[#   7]
    |psi|^2 = 0.996
==== e(   2) =    -0.65248 eV ==== 
     psi = 0.238*[#   1]+0.238*[#   5]+0.180*[#   4]+0.180*[#   8]+0.050*[#   2]
          +0.050*[#   6]+0.040*[#   3]+0.040*[#   7]
    |psi|^2 = 1.014
==== e(   3) =     1.65451 eV ==== 
     psi = 0.198*[#   4]+0.198*[#   8]+0.146*[#   3]+0.146*[#   7]+0.040*[#   2]
          +0.040*[#   6]+0.008*[#   1]+0.008*[#   5]
    |psi|^2 = 0.782
==== e(   4) =     4.01008 eV ==== 
     psi = 0.248*[#   3]+0.248*[#   7]+0.040*[#   2]+0.040*[#   6]
    |psi|^2 = 0.575

 k =   0.4714045208  0.0000000000  0.0000000000
==== e(   1) =    -3.93961 eV ==== 
     psi = 0.315*[#   1]+0.315*[#   5]+0.183*[#   3]+0.183*[#   7]
    |psi|^2 = 0.995
==== e(   2) =     1.11050 eV ==== 
     psi = 0.253*[#   3]+0.253*[#   7]+0.242*[#   1]+0.242*[#   5]+0.183*[#   2]
          +0.183*[#   6]
    |psi|^2 = 1.356
==== e(   3) =     3.69971 eV ==== 
     psi = 0.438*[#   8]+0.061*[#   4]
    |psi|^2 = 0.499
==== e(   4) =     3.69971 eV ==== 
     psi = 0.435*[#   4]+0.253*[#   2]+0.253*[#   6]+0.059*[#   8]
    |psi|^2 = 1.001

 k =   0.2357022604  0.2357022604  0.2357022604
==== e(   1) =    -4.46596 eV ==== 
     psi = 0.359*[#   1]+0.359*[#   5]+0.046*[#   2]+0.046*[#   3]+0.046*[#   4]
          +0.046*[#   6]+0.046*[#   7]+0.046*[#   8]
    |psi|^2 = 0.996
==== e(   2) =     0.76162 eV ==== 
     psi = 0.149*[#   1]+0.149*[#   5]+0.115*[#   3]+0.115*[#   4]+0.115*[#   7]
          +0.115*[#   8]+0.046*[#   2]+0.046*[#   6]
    |psi|^2 = 0.851
==== e(   3) =     5.13338 eV ==== 
     psi = 0.277*[#   4]+0.277*[#   8]+0.115*[#   2]+0.115*[#   6]+0.039*[#   3]
          +0.039*[#   7]
    |psi|^2 = 0.862
==== e(   4) =     5.13338 eV ==== 
     psi = 0.290*[#   3]+0.290*[#   7]+0.115*[#   2]+0.115*[#   6]+0.051*[#   4]
          +0.051*[#   8]
    |psi|^2 = 0.912

 k =   0.7071067812 -0.2357022604 -0.2357022604
==== e(   1) =    -2.56935 eV ==== 
     psi = 0.326*[#   1]+0.326*[#   5]+0.073*[#   3]+0.073*[#   7]+0.050*[#   2]
          +0.050*[#   4]+0.050*[#   6]+0.050*[#   8]
    |psi|^2 = 0.996
==== e(   2) =    -0.65248 eV ==== 
     psi = 0.238*[#   1]+0.238*[#   5]+0.180*[#   3]+0.180*[#   7]+0.073*[#   2]
          +0.073*[#   6]+0.040*[#   4]+0.040*[#   8]
    |psi|^2 = 1.060
==== e(   3) =     1.65451 eV ==== 
     psi = 0.198*[#   3]+0.198*[#   7]+0.146*[#   4]+0.146*[#   8]+0.040*[#   2]
          +0.040*[#   6]+0.008*[#   1]+0.008*[#   5]
    |psi|^2 = 0.782
==== e(   4) =     4.01008 eV ==== 
     psi = 0.248*[#   4]+0.248*[#   8]+0.180*[#   2]+0.180*[#   6]
    |psi|^2 = 0.856

 k =  -0.0000000000  0.4714045208 -0.4714045208
==== e(   1) =    -2.56935 eV ==== 
     psi = 0.326*[#   1]+0.326*[#   5]+0.073*[#   3]+0.073*[#   7]+0.050*[#   2]
          +0.050*[#   4]+0.050*[#   6]+0.050*[#   8]
    |psi|^2 = 0.996
==== e(   2) =    -0.65249 eV ==== 
     psi = 0.238*[#   1]+0.238*[#   5]+0.180*[#   3]+0.180*[#   7]+0.073*[#   2]
          +0.073*[#   6]+0.040*[#   4]+0.040*[#   8]
    |psi|^2 = 1.060
==== e(   3) =     1.65451 eV ==== 
     psi = 0.198*[#   3]+0.198*[#   7]+0.146*[#   4]+0.146*[#   8]+0.040*[#   2]
          +0.040*[#   6]+0.008*[#   1]+0.008*[#   5]
    |psi|^2 = 0.782
==== e(   4) =     4.01008 eV ==== 
     psi = 0.248*[#   4]+0.248*[#   8]+0.180*[#   2]+0.180*[#   6]
    |psi|^2 = 0.856

 k =  -0.2357022604  0.7071067812 -0.2357022604
==== e(   1) =    -2.56935 eV ==== 
     psi = 0.326*[#   1]+0.326*[#   5]+0.073*[#   4]+0.073*[#   8]+0.050*[#   2]
          +0.050*[#   3]+0.050*[#   6]+0.050*[#   7]
    |psi|^2 = 0.996
==== e(   2) =    -0.65248 eV ==== 
     psi = 0.238*[#   1]+0.238*[#   5]+0.180*[#   4]+0.180*[#   8]+0.050*[#   2]
          +0.050*[#   6]+0.040*[#   3]+0.040*[#   7]
    |psi|^2 = 1.014
==== e(   3) =     1.65451 eV ==== 
     psi = 0.198*[#   4]+0.198*[#   8]+0.146*[#   3]+0.146*[#   7]+0.040*[#   2]
          +0.040*[#   6]+0.008*[#   1]+0.008*[#   5]
    |psi|^2 = 0.782
==== e(   4) =     4.01008 eV ==== 
     psi = 0.248*[#   3]+0.248*[#   7]+0.040*[#   2]+0.040*[#   6]
    |psi|^2 = 0.575

 k =   0.2357022604  0.2357022604 -0.7071067812
==== e(   1) =    -2.56935 eV ==== 
     psi = 0.326*[#   1]+0.326*[#   5]+0.073*[#   2]+0.073*[#   6]+0.050*[#   3]
          +0.050*[#   4]+0.050*[#   7]+0.050*[#   8]
    |psi|^2 = 0.996
==== e(   2) =    -0.65248 eV ==== 
     psi = 0.238*[#   1]+0.238*[#   5]+0.050*[#   2]+0.050*[#   6]+0.040*[#   3]
          +0.040*[#   4]+0.040*[#   7]+0.040*[#   8]
    |psi|^2 = 0.734
==== e(   3) =     1.65451 eV ==== 
     psi = 0.180*[#   2]+0.180*[#   6]+0.146*[#   3]+0.146*[#   4]+0.146*[#   7]
          +0.146*[#   8]+0.008*[#   1]+0.008*[#   5]
    |psi|^2 = 0.958
==== e(   4) =     4.01008 eV ==== 
     psi = 0.248*[#   3]+0.248*[#   4]+0.248*[#   7]+0.248*[#   8]+0.040*[#   2]
          +0.040*[#   6]
    |psi|^2 = 1.072

 k =  -0.2357022604 -0.2357022604  0.2357022604
==== e(   1) =    -4.46596 eV ==== 
     psi = 0.359*[#   1]+0.359*[#   5]+0.046*[#   2]+0.046*[#   3]+0.046*[#   4]
          +0.046*[#   6]+0.046*[#   7]+0.046*[#   8]
    |psi|^2 = 0.996
==== e(   2) =     0.76162 eV ==== 
     psi = 0.149*[#   1]+0.149*[#   5]+0.115*[#   3]+0.115*[#   4]+0.115*[#   7]
          +0.115*[#   8]+0.046*[#   2]+0.046*[#   6]
    |psi|^2 = 0.851
==== e(   3) =     5.13338 eV ==== 
     psi = 0.325*[#   3]+0.325*[#   7]+0.115*[#   2]+0.115*[#   6]+0.063*[#   4]
          +0.063*[#   8]
    |psi|^2 = 1.005
==== e(   4) =     5.13338 eV ==== 
     psi = 0.266*[#   4]+0.266*[#   8]+0.115*[#   2]+0.115*[#   6]+0.004*[#   3]
          +0.004*[#   7]
    |psi|^2 = 0.769

 k =  -0.4714045208 -0.0000000000  0.4714045208
==== e(   1) =    -2.56935 eV ==== 
     psi = 0.326*[#   1]+0.326*[#   5]+0.073*[#   4]+0.073*[#   8]+0.050*[#   2]
          +0.050*[#   3]+0.050*[#   6]+0.050*[#   7]
    |psi|^2 = 0.996
==== e(   2) =    -0.65248 eV ==== 
     psi = 0.238*[#   1]+0.238*[#   5]+0.180*[#   4]+0.180*[#   8]+0.050*[#   2]
          +0.050*[#   6]+0.040*[#   3]+0.040*[#   7]
    |psi|^2 = 1.014
==== e(   3) =     1.65451 eV ==== 
     psi = 0.198*[#   4]+0.198*[#   8]+0.146*[#   3]+0.146*[#   7]+0.040*[#   2]
          +0.040*[#   6]+0.008*[#   1]+0.008*[#   5]
    |psi|^2 = 0.782
==== e(   4) =     4.01008 eV ==== 
     psi = 0.248*[#   3]+0.248*[#   7]+0.040*[#   2]+0.040*[#   6]
    |psi|^2 = 0.575

 k =   0.0000000000 -0.4714045208  0.0000000000
==== e(   1) =    -3.93961 eV ==== 
     psi = 0.315*[#   1]+0.315*[#   5]+0.183*[#   4]+0.183*[#   8]
    |psi|^2 = 0.995
==== e(   2) =     1.11050 eV ==== 
     psi = 0.253*[#   4]+0.253*[#   8]+0.242*[#   1]+0.242*[#   5]
    |psi|^2 = 0.990
==== e(   3) =     3.69971 eV ==== 
     psi = 0.471*[#   7]+0.031*[#   3]
    |psi|^2 = 0.501
==== e(   4) =     3.69971 eV ==== 
     psi = 0.466*[#   3]+0.026*[#   7]
    |psi|^2 = 0.492

 k =  -0.0000000000 -0.4714045208  0.4714045208
==== e(   1) =    -2.56935 eV ==== 
     psi = 0.326*[#   1]+0.326*[#   5]+0.073*[#   3]+0.073*[#   7]+0.050*[#   2]
          +0.050*[#   4]+0.050*[#   6]+0.050*[#   8]
    |psi|^2 = 0.996
==== e(   2) =    -0.65249 eV ==== 
     psi = 0.238*[#   1]+0.238*[#   5]+0.180*[#   3]+0.180*[#   7]+0.073*[#   2]
          +0.073*[#   6]+0.040*[#   4]+0.040*[#   8]
    |psi|^2 = 1.060
==== e(   3) =     1.65451 eV ==== 
     psi = 0.198*[#   3]+0.198*[#   7]+0.146*[#   4]+0.146*[#   8]+0.040*[#   2]
          +0.040*[#   6]+0.008*[#   1]+0.008*[#   5]
    |psi|^2 = 0.782
==== e(   4) =     4.01008 eV ==== 
     psi = 0.248*[#   4]+0.248*[#   8]+0.180*[#   2]+0.180*[#   6]
    |psi|^2 = 0.856

 k =  -0.2357022604 -0.2357022604  0.7071067812
==== e(   1) =    -2.56935 eV ==== 
     psi = 0.326*[#   1]+0.326*[#   5]+0.073*[#   2]+0.073*[#   6]+0.050*[#   3]
          +0.050*[#   4]+0.050*[#   7]+0.050*[#   8]
    |psi|^2 = 0.996
==== e(   2) =    -0.65248 eV ==== 
     psi = 0.238*[#   1]+0.238*[#   5]+0.050*[#   2]+0.050*[#   6]+0.040*[#   3]
          +0.040*[#   4]+0.040*[#   7]+0.040*[#   8]
    |psi|^2 = 0.734
==== e(   3) =     1.65451 eV ==== 
     psi = 0.180*[#   2]+0.180*[#   6]+0.146*[#   3]+0.146*[#   4]+0.146*[#   7]
          +0.146*[#   8]+0.008*[#   1]+0.008*[#   5]
    |psi|^2 = 0.958
==== e(   4) =     4.01008 eV ==== 
     psi = 0.248*[#   3]+0.248*[#   4]+0.248*[#   7]+0.248*[#   8]+0.040*[#   2]
          +0.040*[#   6]
    |psi|^2 = 1.072

 k =   0.2357022604 -0.7071067812  0.2357022604
==== e(   1) =    -2.56935 eV ==== 
     psi = 0.326*[#   1]+0.326*[#   5]+0.073*[#   4]+0.073*[#   8]+0.050*[#   2]
          +0.050*[#   3]+0.050*[#   6]+0.050*[#   7]
    |psi|^2 = 0.996
==== e(   2) =    -0.65248 eV ==== 
     psi = 0.238*[#   1]+0.238*[#   5]+0.180*[#   4]+0.180*[#   8]+0.050*[#   2]
          +0.050*[#   6]+0.040*[#   3]+0.040*[#   7]
    |psi|^2 = 1.014
==== e(   3) =     1.65451 eV ==== 
     psi = 0.198*[#   4]+0.198*[#   8]+0.146*[#   3]+0.146*[#   7]+0.040*[#   2]
          +0.040*[#   6]+0.008*[#   1]+0.008*[#   5]
    |psi|^2 = 0.782
==== e(   4) =     4.01008 eV ==== 
     psi = 0.248*[#   3]+0.248*[#   7]+0.040*[#   2]+0.040*[#   6]
    |psi|^2 = 0.575

 k =  -0.4714045208  0.0000000000  0.0000000000
==== e(   1) =    -3.93961 eV ==== 
     psi = 0.315*[#   1]+0.315*[#   5]+0.183*[#   3]+0.183*[#   7]
    |psi|^2 = 0.995
==== e(   2) =     1.11050 eV ==== 
     psi = 0.253*[#   3]+0.253*[#   7]+0.242*[#   1]+0.242*[#   5]+0.183*[#   2]
          +0.183*[#   6]
    |psi|^2 = 1.356
==== e(   3) =     3.69971 eV ==== 
     psi = 0.438*[#   8]+0.061*[#   4]
    |psi|^2 = 0.499
==== e(   4) =     3.69971 eV ==== 
     psi = 0.435*[#   4]+0.253*[#   2]+0.253*[#   6]+0.059*[#   8]
    |psi|^2 = 1.001

 k =  -0.7071067812  0.2357022604  0.2357022604
==== e(   1) =    -2.56935 eV ==== 
     psi = 0.326*[#   1]+0.326*[#   5]+0.073*[#   3]+0.073*[#   7]+0.050*[#   2]
          +0.050*[#   4]+0.050*[#   6]+0.050*[#   8]
    |psi|^2 = 0.996
==== e(   2) =    -0.65248 eV ==== 
     psi = 0.238*[#   1]+0.238*[#   5]+0.180*[#   3]+0.180*[#   7]+0.073*[#   2]
          +0.073*[#   6]+0.040*[#   4]+0.040*[#   8]
    |psi|^2 = 1.060
==== e(   3) =     1.65451 eV ==== 
     psi = 0.198*[#   3]+0.198*[#   7]+0.146*[#   4]+0.146*[#   8]+0.040*[#   2]
          +0.040*[#   6]+0.008*[#   1]+0.008*[#   5]
    |psi|^2 = 0.782
==== e(   4) =     4.01008 eV ==== 
     psi = 0.248*[#   4]+0.248*[#   8]+0.180*[#   2]+0.180*[#   6]
    |psi|^2 = 0.856

 k =  -0.2357022604 -0.2357022604 -0.2357022604
==== e(   1) =    -4.46596 eV ==== 
     psi = 0.359*[#   1]+0.359*[#   5]+0.046*[#   2]+0.046*[#   3]+0.046*[#   4]
          +0.046*[#   6]+0.046*[#   7]+0.046*[#   8]
    |psi|^2 = 0.996
==== e(   2) =     0.76162 eV ==== 
     psi = 0.149*[#   1]+0.149*[#   5]+0.115*[#   3]+0.115*[#   4]+0.115*[#   7]
          +0.115*[#   8]+0.046*[#   2]+0.046*[#   6]
    |psi|^2 = 0.851
==== e(   3) =     5.13338 eV ==== 
     psi = 0.277*[#   4]+0.277*[#   8]+0.115*[#   2]+0.115*[#   6]+0.039*[#   3]
          +0.039*[#   7]
    |psi|^2 = 0.862
==== e(   4) =     5.13338 eV ==== 
     psi = 0.290*[#   3]+0.290*[#   7]+0.115*[#   2]+0.115*[#   6]+0.051*[#   4]
          +0.051*[#   8]
    |psi|^2 = 0.912

Lowdin Charges: 

     Atom #   1: total charge =   3.6047, s =  1.0929, p =  2.5118, 
                 spin up      =   1.8044, s =  0.5464, 
                 spin up      =   1.8044, p =  1.2580, pz=  0.3005, px=  0.4787, py=  0.4787, 
                 spin down    =   1.8003, s =  0.5464, 
                 spin down    =   1.8003, p =  1.2538, pz=  0.2964, px=  0.4787, py=  0.4787, 
                 polarization =   0.0041, s = -0.0000, p =  0.0041, 
     Atom #   2: total charge =   3.6047, s =  1.0929, p =  2.5118, 
                 spin up      =   1.8044, s =  0.5464, 
                 spin up      =   1.8044, p =  1.2580, pz=  0.3005, px=  0.4787, py=  0.4787, 
                 spin down    =   1.8003, s =  0.5464, 
                 spin down    =   1.8003, p =  1.2538, pz=  0.2964, px=  0.4787, py=  0.4787, 
                 polarization =   0.0041, s =  0.0000, p =  0.0041, 
     Spilling Parameter:   0.0988

     PROJWFC      :      0.16s CPU      0.17s WALL


   This run was terminated on:  11:17:17  10Sep2024            

=------------------------------------------------------------------------------=
   JOB DONE.
=------------------------------------------------------------------------------=
