
     Program PROJWFC v.7.3.1 starts on 13Aug2024 at 12:45:53 

     This program is part of the open-source Quantum ESPRESSO suite
     for quantum simulation of materials; please cite
         "P. Giannozzi et al., J. Phys.:Condens. Matter 21 395502 (2009);
         "P. Giannozzi et al., J. Phys.:Condens. Matter 29 465901 (2017);
         "P. Giannozzi et al., J. Chem. Phys. 152 154105 (2020);
          URL http://www.quantum-espresso.org", 
     in publications or presentations arising from this work. More details at
     http://www.quantum-espresso.org/quote

     Parallel version (MPI), running on     1 processors

     MPI processes distributed on     1 nodes
     210 MiB available memory on the printing compute node when the environment starts


     Reading xml data from directory:

     ./out/si_lda.save/
     Message from routine volume:
     axis vectors are left-handed

     IMPORTANT: XC functional enforced from input :
     Exchange-correlation= PW
                           (   1   4   0   0   0   0   0)
     Any further DFT definition will be discarded
     Please, verify this is what you really want


     G-vector sticks info
     --------------------
     sticks:   dense  smooth     PW     G-vecs:    dense   smooth      PW
     Sum         859     433    151                16889     5985    1139

     Using Slab Decomposition


     Gaussian broadening (read from input): ngauss,degauss=   0    0.010000


     Calling projwave .... 
     Subspace diagonalization in iterative solution of the eigenvalue problem:
     a serial algorithm will be used


  Problem Sizes 
  natomwfc =            8
  nbnd     =            4
  nkstot   =           56
  npwx     =          763
  nkb      =           36


     --------------------- ATOM    1 ----------------------

     Orbital quantum number l = 0
     occupation matrix ns (before diag.):
       1.150
     eigenvalues:
       1.150
     eigenvectors (columns):
       1.000

     Orbital quantum number l = 1
     occupation matrix ns (before diag.):
       0.938 -0.000  0.000
      -0.000  0.938 -0.000
       0.000 -0.000  0.938
     eigenvalues:
       0.938  0.938  0.938
     eigenvectors (columns):
       1.000  0.000  0.000
       0.000  1.000  0.000
       0.000  0.000  1.000

     --------------------- ATOM    2 ----------------------

     Orbital quantum number l = 0
     occupation matrix ns (before diag.):
       1.150
     eigenvalues:
       1.150
     eigenvectors (columns):
       1.000

     Orbital quantum number l = 1
     occupation matrix ns (before diag.):
       0.938 -0.000  0.000
      -0.000  0.938 -0.000
       0.000 -0.000  0.938
     eigenvalues:
       0.938  0.938  0.938
     eigenvectors (columns):
       1.000  0.000  0.000
       0.000  1.000  0.000
       0.000  0.000  1.000

     All occupation matrices are already diagonal. No rotation will be performed!

     Atomic states used for projection
     (read from pseudopotential files):

     state #   1: atom   1 (Si ), wfc  1 (l=0 m= 1)
     state #   2: atom   1 (Si ), wfc  2 (l=1 m= 1)
     state #   3: atom   1 (Si ), wfc  2 (l=1 m= 2)
     state #   4: atom   1 (Si ), wfc  2 (l=1 m= 3)
     state #   5: atom   2 (Si ), wfc  1 (l=0 m= 1)
     state #   6: atom   2 (Si ), wfc  2 (l=1 m= 1)
     state #   7: atom   2 (Si ), wfc  2 (l=1 m= 2)
     state #   8: atom   2 (Si ), wfc  2 (l=1 m= 3)

 k =   0.0000000000  0.0000000000  0.0000000000
==== e(   1) =    -5.92608 eV ==== 
     psi = 0.498*[#   1]+0.498*[#   5]
    |psi|^2 = 0.996
==== e(   2) =     6.03403 eV ==== 
     psi = 0.338*[#   4]+0.338*[#   8]+0.127*[#   3]+0.127*[#   7]+0.016*[#   2]
          +0.016*[#   6]
    |psi|^2 = 0.962
==== e(   3) =     6.03403 eV ==== 
     psi = 0.254*[#   2]+0.254*[#   6]+0.199*[#   3]+0.199*[#   7]+0.027*[#   4]
          +0.027*[#   8]
    |psi|^2 = 0.962
==== e(   4) =     6.03403 eV ==== 
     psi = 0.211*[#   2]+0.211*[#   6]+0.154*[#   3]+0.154*[#   7]+0.116*[#   4]
          +0.116*[#   8]
    |psi|^2 = 0.962

 k =  -0.0642824347  0.0642824347  0.0642824347
==== e(   1) =    -5.81791 eV ==== 
     psi = 0.470*[#   1]+0.470*[#   5]+0.009*[#   2]+0.009*[#   3]+0.009*[#   4]
          +0.009*[#   6]+0.009*[#   7]+0.009*[#   8]
    |psi|^2 = 0.996
==== e(   2) =     5.03383 eV ==== 
     psi = 0.140*[#   2]+0.140*[#   3]+0.140*[#   4]+0.140*[#   6]+0.140*[#   7]
          +0.140*[#   8]+0.067*[#   1]+0.067*[#   5]
    |psi|^2 = 0.974
==== e(   3) =     5.86612 eV ==== 
     psi = 0.215*[#   4]+0.215*[#   8]+0.193*[#   3]+0.193*[#   7]+0.075*[#   2]
          +0.075*[#   6]
    |psi|^2 = 0.968
==== e(   4) =     5.86612 eV ==== 
     psi = 0.247*[#   2]+0.247*[#   6]+0.129*[#   3]+0.129*[#   7]+0.107*[#   4]
          +0.107*[#   8]
    |psi|^2 = 0.968

 k =  -0.1285648693  0.1285648693  0.1285648693
==== e(   1) =    -5.49751 eV ==== 
     psi = 0.415*[#   1]+0.415*[#   5]+0.028*[#   2]+0.028*[#   3]+0.028*[#   4]
          +0.028*[#   6]+0.028*[#   7]+0.028*[#   8]
    |psi|^2 = 0.996
==== e(   2) =     3.34849 eV ==== 
     psi = 0.124*[#   2]+0.124*[#   3]+0.124*[#   4]+0.124*[#   6]+0.124*[#   7]
          +0.124*[#   8]+0.119*[#   1]+0.119*[#   5]
    |psi|^2 = 0.983
==== e(   3) =     5.52490 eV ==== 
     psi = 0.297*[#   4]+0.297*[#   8]+0.173*[#   3]+0.173*[#   7]+0.019*[#   2]
          +0.019*[#   6]
    |psi|^2 = 0.976
==== e(   4) =     5.52490 eV ==== 
     psi = 0.307*[#   2]+0.307*[#   6]+0.153*[#   3]+0.153*[#   7]+0.029*[#   4]
          +0.029*[#   8]
    |psi|^2 = 0.976

 k =  -0.1928473040  0.1928473040  0.1928473040
==== e(   1) =    -4.98117 eV ==== 
     psi = 0.373*[#   1]+0.373*[#   5]+0.042*[#   2]+0.042*[#   3]+0.042*[#   4]
          +0.042*[#   6]+0.042*[#   7]+0.042*[#   8]
    |psi|^2 = 0.995
==== e(   2) =     1.68599 eV ==== 
     psi = 0.145*[#   1]+0.145*[#   5]+0.116*[#   2]+0.116*[#   3]+0.116*[#   4]
          +0.116*[#   6]+0.116*[#   7]+0.116*[#   8]
    |psi|^2 = 0.987
==== e(   3) =     5.20185 eV ==== 
     psi = 0.318*[#   3]+0.318*[#   7]+0.113*[#   4]+0.113*[#   8]+0.060*[#   2]
          +0.060*[#   6]
    |psi|^2 = 0.982
==== e(   4) =     5.20185 eV ==== 
     psi = 0.267*[#   2]+0.267*[#   6]+0.214*[#   4]+0.214*[#   8]+0.009*[#   3]
          +0.009*[#   7]
    |psi|^2 = 0.982

 k =  -0.2571297386  0.2571297386  0.2571297386
==== e(   1) =    -4.31933 eV ==== 
     psi = 0.358*[#   1]+0.358*[#   5]+0.047*[#   2]+0.047*[#   3]+0.047*[#   4]
          +0.047*[#   6]+0.047*[#   7]+0.047*[#   8]
    |psi|^2 = 0.995
==== e(   2) =     0.22749 eV ==== 
     psi = 0.148*[#   1]+0.148*[#   5]+0.115*[#   2]+0.115*[#   3]+0.115*[#   4]
          +0.115*[#   6]+0.115*[#   7]+0.115*[#   8]
    |psi|^2 = 0.988
==== e(   3) =     4.97098 eV ==== 
     psi = 0.263*[#   4]+0.263*[#   8]+0.222*[#   3]+0.222*[#   7]+0.008*[#   2]
          +0.008*[#   6]
    |psi|^2 = 0.986
==== e(   4) =     4.97098 eV ==== 
     psi = 0.320*[#   2]+0.320*[#   6]+0.107*[#   3]+0.107*[#   7]+0.066*[#   4]
          +0.066*[#   8]
    |psi|^2 = 0.986

 k =  -0.3214121733  0.3214121733  0.3214121733
==== e(   1) =    -3.70518 eV ==== 
     psi = 0.375*[#   1]+0.375*[#   5]+0.041*[#   2]+0.041*[#   3]+0.041*[#   4]
          +0.041*[#   6]+0.041*[#   7]+0.041*[#   8]
    |psi|^2 = 0.996
==== e(   2) =    -0.79235 eV ==== 
     psi = 0.125*[#   1]+0.125*[#   5]+0.123*[#   2]+0.123*[#   3]+0.123*[#   4]
          +0.123*[#   6]+0.123*[#   7]+0.123*[#   8]
    |psi|^2 = 0.987
==== e(   3) =     4.85346 eV ==== 
     psi = 0.306*[#   3]+0.306*[#   7]+0.111*[#   4]+0.111*[#   8]+0.076*[#   2]
          +0.076*[#   6]
    |psi|^2 = 0.988
==== e(   4) =     4.85346 eV ==== 
     psi = 0.253*[#   2]+0.253*[#   6]+0.218*[#   4]+0.218*[#   8]+0.023*[#   3]
          +0.023*[#   7]
    |psi|^2 = 0.988

 k =   0.0000000000  0.0000000000  0.1285648693
==== e(   1) =    -5.78166 eV ==== 
     psi = 0.461*[#   1]+0.461*[#   5]+0.037*[#   2]+0.037*[#   6]
    |psi|^2 = 0.996
==== e(   2) =     5.21336 eV ==== 
     psi = 0.387*[#   2]+0.387*[#   6]+0.099*[#   1]+0.099*[#   5]
    |psi|^2 = 0.971
==== e(   3) =     5.53763 eV ==== 
     psi = 0.439*[#   8]+0.282*[#   4]+0.205*[#   3]+0.047*[#   7]
    |psi|^2 = 0.973
==== e(   4) =     5.53763 eV ==== 
     psi = 0.439*[#   7]+0.282*[#   3]+0.205*[#   4]+0.047*[#   8]
    |psi|^2 = 0.973

 k =  -0.0642824347  0.0642824347  0.1928473040
==== e(   1) =    -5.53126 eV ==== 
     psi = 0.418*[#   1]+0.418*[#   5]+0.066*[#   2]+0.066*[#   6]+0.007*[#   3]
          +0.007*[#   4]+0.007*[#   7]+0.007*[#   8]
    |psi|^2 = 0.996
==== e(   2) =     3.84960 eV ==== 
     psi = 0.179*[#   2]+0.179*[#   6]+0.122*[#   1]+0.122*[#   5]+0.095*[#   3]
          +0.095*[#   4]+0.095*[#   7]+0.095*[#   8]
    |psi|^2 = 0.981
==== e(   3) =     5.13962 eV ==== 
     psi = 0.245*[#   3]+0.245*[#   4]+0.245*[#   7]+0.245*[#   8]
    |psi|^2 = 0.980
==== e(   4) =     5.31961 eV ==== 
     psi = 0.209*[#   2]+0.209*[#   6]+0.124*[#   3]+0.124*[#   4]+0.124*[#   7]
          +0.124*[#   8]+0.032*[#   1]+0.032*[#   5]
    |psi|^2 = 0.977

 k =  -0.1285648693  0.1285648693  0.2571297386
==== e(   1) =    -5.07775 eV ==== 
     psi = 0.375*[#   1]+0.375*[#   5]+0.084*[#   2]+0.084*[#   6]+0.020*[#   3]
          +0.020*[#   4]+0.020*[#   7]+0.020*[#   8]
    |psi|^2 = 0.995
==== e(   2) =     2.22492 eV ==== 
     psi = 0.148*[#   1]+0.148*[#   5]+0.126*[#   2]+0.126*[#   6]+0.110*[#   3]
          +0.110*[#   4]+0.110*[#   7]+0.110*[#   8]
    |psi|^2 = 0.987
==== e(   3) =     4.82081 eV ==== 
     psi = 0.246*[#   3]+0.246*[#   4]+0.246*[#   7]+0.246*[#   8]
    |psi|^2 = 0.984
==== e(   4) =     4.94312 eV ==== 
     psi = 0.272*[#   2]+0.272*[#   6]+0.086*[#   3]+0.086*[#   4]+0.086*[#   7]
          +0.086*[#   8]+0.047*[#   1]+0.047*[#   5]
    |psi|^2 = 0.983

 k =  -0.1928473040  0.1928473040  0.3214121733
==== e(   1) =    -4.45484 eV ==== 
     psi = 0.352*[#   1]+0.352*[#   5]+0.087*[#   2]+0.087*[#   6]+0.029*[#   3]
          +0.029*[#   4]+0.029*[#   7]+0.029*[#   8]
    |psi|^2 = 0.995
==== e(   2) =     0.71369 eV ==== 
     psi = 0.156*[#   1]+0.156*[#   5]+0.115*[#   3]+0.115*[#   4]+0.115*[#   7]
          +0.115*[#   8]+0.107*[#   2]+0.107*[#   6]
    |psi|^2 = 0.989
==== e(   3) =     4.55953 eV ==== 
     psi = 0.286*[#   2]+0.286*[#   6]+0.077*[#   3]+0.077*[#   4]+0.077*[#   7]
          +0.077*[#   8]+0.053*[#   1]+0.053*[#   5]
    |psi|^2 = 0.987
==== e(   4) =     4.63493 eV ==== 
     psi = 0.247*[#   3]+0.247*[#   4]+0.247*[#   7]+0.247*[#   8]
    |psi|^2 = 0.987

 k =  -0.2571297386  0.2571297386  0.3856946079
==== e(   1) =    -3.78211 eV ==== 
     psi = 0.359*[#   1]+0.359*[#   5]+0.074*[#   2]+0.074*[#   6]+0.032*[#   3]
          +0.032*[#   4]+0.032*[#   7]+0.032*[#   8]
    |psi|^2 = 0.996
==== e(   2) =    -0.48335 eV ==== 
     psi = 0.142*[#   1]+0.142*[#   5]+0.122*[#   3]+0.122*[#   4]+0.122*[#   7]
          +0.122*[#   8]+0.109*[#   2]+0.109*[#   6]
    |psi|^2 = 0.988
==== e(   3) =     4.26057 eV ==== 
     psi = 0.283*[#   2]+0.283*[#   6]+0.079*[#   3]+0.079*[#   4]+0.079*[#   7]
          +0.079*[#   8]+0.054*[#   1]+0.054*[#   5]
    |psi|^2 = 0.988
==== e(   4) =     4.59583 eV ==== 
     psi = 0.247*[#   3]+0.247*[#   4]+0.247*[#   7]+0.247*[#   8]
    |psi|^2 = 0.988

 k =   0.3856946079 -0.3856946079 -0.2571297386
==== e(   1) =    -3.50980 eV ==== 
     psi = 0.374*[#   1]+0.374*[#   5]+0.042*[#   2]+0.042*[#   6]+0.041*[#   3]
          +0.041*[#   4]+0.041*[#   7]+0.041*[#   8]
    |psi|^2 = 0.997
==== e(   2) =    -0.88755 eV ==== 
     psi = 0.130*[#   2]+0.130*[#   6]+0.125*[#   1]+0.125*[#   5]+0.119*[#   3]
          +0.119*[#   4]+0.119*[#   7]+0.119*[#   8]
    |psi|^2 = 0.988
==== e(   3) =     4.08204 eV ==== 
     psi = 0.275*[#   2]+0.275*[#   6]+0.084*[#   3]+0.084*[#   4]+0.084*[#   7]
          +0.084*[#   8]+0.052*[#   1]+0.052*[#   5]
    |psi|^2 = 0.989
==== e(   4) =     4.69866 eV ==== 
     psi = 0.247*[#   3]+0.247*[#   4]+0.247*[#   7]+0.247*[#   8]
    |psi|^2 = 0.988

 k =   0.3214121733 -0.3214121733 -0.1928473040
==== e(   1) =    -3.99695 eV ==== 
     psi = 0.354*[#   1]+0.354*[#   5]+0.059*[#   3]+0.059*[#   4]+0.059*[#   7]
          +0.059*[#   8]+0.026*[#   2]+0.026*[#   6]
    |psi|^2 = 0.996
==== e(   2) =    -0.13434 eV ==== 
     psi = 0.149*[#   1]+0.149*[#   5]+0.134*[#   2]+0.134*[#   6]+0.106*[#   3]
          +0.106*[#   4]+0.106*[#   7]+0.106*[#   8]
    |psi|^2 = 0.989
==== e(   3) =     4.04500 eV ==== 
     psi = 0.267*[#   2]+0.267*[#   6]+0.090*[#   3]+0.090*[#   4]+0.090*[#   7]
          +0.090*[#   8]+0.048*[#   1]+0.048*[#   5]
    |psi|^2 = 0.988
==== e(   4) =     4.92709 eV ==== 
     psi = 0.247*[#   3]+0.247*[#   4]+0.247*[#   7]+0.247*[#   8]
    |psi|^2 = 0.987

 k =   0.2571297386 -0.2571297386 -0.1285648693
==== e(   1) =    -4.67872 eV ==== 
     psi = 0.358*[#   1]+0.358*[#   5]+0.061*[#   3]+0.061*[#   4]+0.061*[#   7]
          +0.061*[#   8]+0.017*[#   2]+0.017*[#   6]
    |psi|^2 = 0.995
==== e(   2) =     1.19748 eV ==== 
     psi = 0.155*[#   1]+0.155*[#   5]+0.127*[#   2]+0.127*[#   6]+0.106*[#   3]
          +0.106*[#   4]+0.106*[#   7]+0.106*[#   8]
    |psi|^2 = 0.989
==== e(   3) =     4.16576 eV ==== 
     psi = 0.264*[#   2]+0.264*[#   6]+0.093*[#   3]+0.093*[#   4]+0.093*[#   7]
          +0.093*[#   8]+0.043*[#   1]+0.043*[#   5]
    |psi|^2 = 0.987
==== e(   4) =     5.25201 eV ==== 
     psi = 0.246*[#   3]+0.246*[#   4]+0.246*[#   7]+0.246*[#   8]
    |psi|^2 = 0.984

 k =   0.1928473040 -0.1928473040 -0.0642824347
==== e(   1) =    -5.25124 eV ==== 
     psi = 0.388*[#   1]+0.388*[#   5]+0.051*[#   3]+0.051*[#   4]+0.051*[#   7]
          +0.051*[#   8]+0.007*[#   2]+0.007*[#   6]
    |psi|^2 = 0.996
==== e(   2) =     2.75153 eV ==== 
     psi = 0.140*[#   1]+0.140*[#   5]+0.119*[#   3]+0.119*[#   4]+0.119*[#   7]
          +0.119*[#   8]+0.114*[#   2]+0.114*[#   6]
    |psi|^2 = 0.986
==== e(   3) =     4.46300 eV ==== 
     psi = 0.277*[#   2]+0.277*[#   6]+0.090*[#   3]+0.090*[#   4]+0.090*[#   7]
          +0.090*[#   8]+0.034*[#   1]+0.034*[#   5]
    |psi|^2 = 0.984
==== e(   4) =     5.61706 eV ==== 
     psi = 0.245*[#   3]+0.245*[#   4]+0.245*[#   7]+0.245*[#   8]
    |psi|^2 = 0.978

 k =   0.1285648693 -0.1285648693 -0.0000000000
==== e(   1) =    -5.63870 eV ==== 
     psi = 0.434*[#   1]+0.434*[#   5]+0.032*[#   3]+0.032*[#   4]+0.032*[#   7]
          +0.032*[#   8]
    |psi|^2 = 0.996
==== e(   2) =     4.22635 eV ==== 
     psi = 0.153*[#   3]+0.153*[#   4]+0.153*[#   7]+0.153*[#   8]+0.110*[#   1]
          +0.110*[#   5]+0.074*[#   2]+0.074*[#   6]
    |psi|^2 = 0.979
==== e(   3) =     5.03187 eV ==== 
     psi = 0.340*[#   2]+0.340*[#   6]+0.067*[#   3]+0.067*[#   4]+0.067*[#   7]
          +0.067*[#   8]+0.015*[#   1]+0.015*[#   5]
    |psi|^2 = 0.979
==== e(   4) =     5.89223 eV ==== 
     psi = 0.243*[#   3]+0.243*[#   4]+0.243*[#   7]+0.243*[#   8]
    |psi|^2 = 0.970

 k =   0.0000000000  0.0000000000  0.2571297386
==== e(   1) =    -5.35108 eV ==== 
     psi = 0.393*[#   1]+0.393*[#   5]+0.105*[#   2]+0.105*[#   6]
    |psi|^2 = 0.996
==== e(   2) =     3.70834 eV ==== 
     psi = 0.310*[#   2]+0.310*[#   6]+0.180*[#   1]+0.180*[#   5]
    |psi|^2 = 0.981
==== e(   3) =     4.70418 eV ==== 
     psi = 0.391*[#   7]+0.340*[#   4]+0.152*[#   3]+0.101*[#   8]
    |psi|^2 = 0.985
==== e(   4) =     4.70418 eV ==== 
     psi = 0.391*[#   8]+0.340*[#   3]+0.152*[#   4]+0.101*[#   7]
    |psi|^2 = 0.985

 k =  -0.0642824347  0.0642824347  0.3214121733
==== e(   1) =    -4.96391 eV ==== 
     psi = 0.361*[#   1]+0.361*[#   5]+0.127*[#   2]+0.127*[#   6]+0.005*[#   3]
          +0.005*[#   4]+0.005*[#   7]+0.005*[#   8]
    |psi|^2 = 0.995
==== e(   2) =     2.54868 eV ==== 
     psi = 0.208*[#   2]+0.208*[#   6]+0.184*[#   1]+0.184*[#   5]+0.050*[#   3]
          +0.050*[#   4]+0.050*[#   7]+0.050*[#   8]
    |psi|^2 = 0.986
==== e(   3) =     4.27947 eV ==== 
     psi = 0.173*[#   3]+0.173*[#   4]+0.173*[#   7]+0.173*[#   8]+0.114*[#   2]
          +0.114*[#   6]+0.034*[#   1]+0.034*[#   5]
    |psi|^2 = 0.987
==== e(   4) =     4.36067 eV ==== 
     psi = 0.247*[#   3]+0.247*[#   4]+0.247*[#   7]+0.247*[#   8]
    |psi|^2 = 0.988

 k =  -0.1285648693  0.1285648693  0.3856946079
==== e(   1) =    -4.39222 eV ==== 
     psi = 0.338*[#   1]+0.338*[#   5]+0.133*[#   2]+0.133*[#   6]+0.013*[#   3]
          +0.013*[#   4]+0.013*[#   7]+0.013*[#   8]
    |psi|^2 = 0.995
==== e(   2) =     1.17317 eV ==== 
     psi = 0.186*[#   1]+0.186*[#   5]+0.139*[#   2]+0.139*[#   6]+0.085*[#   3]
          +0.085*[#   4]+0.085*[#   7]+0.085*[#   8]
    |psi|^2 = 0.989
==== e(   3) =     3.74030 eV ==== 
     psi = 0.197*[#   2]+0.197*[#   6]+0.119*[#   3]+0.119*[#   4]+0.119*[#   7]
          +0.119*[#   8]+0.060*[#   1]+0.060*[#   5]
    |psi|^2 = 0.990
==== e(   4) =     4.16448 eV ==== 
     psi = 0.247*[#   3]+0.247*[#   4]+0.247*[#   7]+0.247*[#   8]
    |psi|^2 = 0.990

 k =  -0.1928473040  0.1928473040  0.4499770426
==== e(   1) =    -3.70992 eV ==== 
     psi = 0.336*[#   1]+0.336*[#   5]+0.122*[#   2]+0.122*[#   6]+0.020*[#   3]
          +0.020*[#   4]+0.020*[#   7]+0.020*[#   8]
    |psi|^2 = 0.995
==== e(   2) =    -0.06894 eV ==== 
     psi = 0.177*[#   1]+0.177*[#   5]+0.112*[#   2]+0.112*[#   6]+0.103*[#   3]
          +0.103*[#   4]+0.103*[#   7]+0.103*[#   8]
    |psi|^2 = 0.990
==== e(   3) =     3.26014 eV ==== 
     psi = 0.229*[#   2]+0.229*[#   6]+0.100*[#   3]+0.100*[#   4]+0.100*[#   7]
          +0.100*[#   8]+0.067*[#   1]+0.067*[#   5]
    |psi|^2 = 0.991
==== e(   4) =     4.13315 eV ==== 
     psi = 0.248*[#   3]+0.248*[#   4]+0.248*[#   7]+0.248*[#   8]
    |psi|^2 = 0.990

 k =   0.4499770426 -0.4499770426 -0.1928473040
==== e(   1) =    -3.22336 eV ==== 
     psi = 0.354*[#   1]+0.354*[#   5]+0.079*[#   2]+0.079*[#   6]+0.032*[#   3]
          +0.032*[#   4]+0.032*[#   7]+0.032*[#   8]
    |psi|^2 = 0.996
==== e(   2) =    -0.78353 eV ==== 
     psi = 0.153*[#   1]+0.153*[#   5]+0.127*[#   2]+0.127*[#   6]+0.107*[#   3]
          +0.107*[#   4]+0.107*[#   7]+0.107*[#   8]
    |psi|^2 = 0.989
==== e(   3) =     2.92237 eV ==== 
     psi = 0.238*[#   2]+0.238*[#   6]+0.096*[#   3]+0.096*[#   4]+0.096*[#   7]
          +0.096*[#   8]+0.067*[#   1]+0.067*[#   5]
    |psi|^2 = 0.992
==== e(   4) =     4.26553 eV ==== 
     psi = 0.248*[#   3]+0.248*[#   4]+0.248*[#   7]+0.248*[#   8]
    |psi|^2 = 0.990

 k =   0.3856946079 -0.3856946079 -0.1285648693
==== e(   1) =    -3.51092 eV ==== 
     psi = 0.343*[#   1]+0.343*[#   5]+0.061*[#   3]+0.061*[#   4]+0.061*[#   7]
          +0.061*[#   8]+0.033*[#   2]+0.033*[#   6]
    |psi|^2 = 0.996
==== e(   2) =    -0.36922 eV ==== 
     psi = 0.167*[#   1]+0.167*[#   5]+0.148*[#   2]+0.148*[#   6]+0.090*[#   3]
          +0.090*[#   4]+0.090*[#   7]+0.090*[#   8]
    |psi|^2 = 0.990
==== e(   3) =     2.76727 eV ==== 
     psi = 0.239*[#   2]+0.239*[#   6]+0.097*[#   3]+0.097*[#   4]+0.097*[#   7]
          +0.097*[#   8]+0.063*[#   1]+0.063*[#   5]
    |psi|^2 = 0.992
==== e(   4) =     4.54519 eV ==== 
     psi = 0.247*[#   3]+0.247*[#   4]+0.247*[#   7]+0.247*[#   8]
    |psi|^2 = 0.989

 k =   0.3214121733 -0.3214121733 -0.0642824347
==== e(   1) =    -4.18557 eV ==== 
     psi = 0.339*[#   1]+0.339*[#   5]+0.072*[#   3]+0.072*[#   4]+0.072*[#   7]
          +0.072*[#   8]+0.014*[#   2]+0.014*[#   6]
    |psi|^2 = 0.995
==== e(   2) =     0.75290 eV ==== 
     psi = 0.181*[#   1]+0.181*[#   5]+0.139*[#   2]+0.139*[#   6]+0.088*[#   3]
          +0.088*[#   4]+0.088*[#   7]+0.088*[#   8]
    |psi|^2 = 0.991
==== e(   3) =     2.84708 eV ==== 
     psi = 0.244*[#   2]+0.244*[#   6]+0.099*[#   3]+0.099*[#   4]+0.099*[#   7]
          +0.099*[#   8]+0.054*[#   1]+0.054*[#   5]
    |psi|^2 = 0.991
==== e(   4) =     4.93425 eV ==== 
     psi = 0.247*[#   3]+0.247*[#   4]+0.247*[#   7]+0.247*[#   8]
    |psi|^2 = 0.987

 k =   0.2571297386 -0.2571297386  0.0000000000
==== e(   1) =    -4.80323 eV ==== 
     psi = 0.358*[#   1]+0.358*[#   5]+0.068*[#   3]+0.068*[#   4]+0.068*[#   7]
          +0.068*[#   8]+0.005*[#   2]+0.005*[#   6]
    |psi|^2 = 0.995
==== e(   2) =     1.94751 eV ==== 
     psi = 0.175*[#   1]+0.175*[#   5]+0.115*[#   2]+0.115*[#   6]+0.103*[#   3]
          +0.103*[#   4]+0.103*[#   7]+0.103*[#   8]
    |psi|^2 = 0.988
==== e(   3) =     3.33160 eV ==== 
     psi = 0.262*[#   2]+0.262*[#   6]+0.095*[#   3]+0.095*[#   4]+0.095*[#   7]
          +0.095*[#   8]+0.044*[#   1]+0.044*[#   5]
    |psi|^2 = 0.989
==== e(   4) =     5.34984 eV ==== 
     psi = 0.246*[#   3]+0.246*[#   4]+0.246*[#   7]+0.246*[#   8]
    |psi|^2 = 0.983

 k =   0.0000000000  0.0000000000  0.3856946079
==== e(   1) =    -4.64285 eV ==== 
     psi = 0.340*[#   1]+0.340*[#   5]+0.158*[#   2]+0.158*[#   6]
    |psi|^2 = 0.995
==== e(   2) =     2.09051 eV ==== 
     psi = 0.270*[#   2]+0.270*[#   6]+0.224*[#   1]+0.224*[#   5]
    |psi|^2 = 0.987
==== e(   3) =     3.98194 eV ==== 
     psi = 0.356*[#   4]+0.270*[#   7]+0.225*[#   8]+0.140*[#   3]
    |psi|^2 = 0.991
==== e(   4) =     3.98194 eV ==== 
     psi = 0.356*[#   3]+0.270*[#   8]+0.225*[#   7]+0.140*[#   4]
    |psi|^2 = 0.991

 k =  -0.0642824347  0.0642824347  0.4499770426
==== e(   1) =    -4.12908 eV ==== 
     psi = 0.321*[#   1]+0.321*[#   5]+0.170*[#   2]+0.170*[#   6]+0.003*[#   3]
          +0.003*[#   4]+0.003*[#   7]+0.003*[#   8]
    |psi|^2 = 0.995
==== e(   2) =     1.13685 eV ==== 
     psi = 0.234*[#   1]+0.234*[#   5]+0.223*[#   2]+0.223*[#   6]+0.019*[#   3]
          +0.019*[#   4]+0.019*[#   7]+0.019*[#   8]
    |psi|^2 = 0.990
==== e(   3) =     3.43473 eV ==== 
     psi = 0.208*[#   3]+0.208*[#   4]+0.208*[#   7]+0.208*[#   8]+0.063*[#   2]
          +0.063*[#   6]+0.018*[#   1]+0.018*[#   5]
    |psi|^2 = 0.992
==== e(   4) =     3.75039 eV ==== 
     psi = 0.248*[#   3]+0.248*[#   4]+0.248*[#   7]+0.248*[#   8]
    |psi|^2 = 0.992

 k =  -0.1285648693  0.1285648693  0.5142594772
==== e(   1) =    -3.46822 eV ==== 
     psi = 0.314*[#   1]+0.314*[#   5]+0.165*[#   2]+0.165*[#   6]+0.009*[#   3]
          +0.009*[#   4]+0.009*[#   7]+0.009*[#   8]
    |psi|^2 = 0.994
==== e(   2) =     0.10652 eV ==== 
     psi = 0.234*[#   1]+0.234*[#   5]+0.166*[#   2]+0.166*[#   6]+0.048*[#   3]
          +0.048*[#   4]+0.048*[#   7]+0.048*[#   8]
    |psi|^2 = 0.992
==== e(   3) =     2.69636 eV ==== 
     psi = 0.163*[#   3]+0.163*[#   4]+0.163*[#   7]+0.163*[#   8]+0.140*[#   2]
          +0.140*[#   6]+0.030*[#   1]+0.030*[#   5]
    |psi|^2 = 0.993
==== e(   4) =     3.68957 eV ==== 
     psi = 0.248*[#   3]+0.248*[#   4]+0.248*[#   7]+0.248*[#   8]
    |psi|^2 = 0.993

 k =   0.5142594772 -0.5142594772 -0.1285648693
==== e(   1) =    -2.85034 eV ==== 
     psi = 0.326*[#   1]+0.326*[#   5]+0.131*[#   2]+0.131*[#   6]+0.020*[#   3]
          +0.020*[#   4]+0.020*[#   7]+0.020*[#   8]
    |psi|^2 = 0.995
==== e(   2) =    -0.69953 eV ==== 
     psi = 0.218*[#   1]+0.218*[#   5]+0.143*[#   2]+0.143*[#   6]+0.067*[#   3]
          +0.067*[#   4]+0.067*[#   7]+0.067*[#   8]
    |psi|^2 = 0.992
==== e(   3) =     2.11746 eV ==== 
     psi = 0.187*[#   2]+0.187*[#   6]+0.139*[#   3]+0.139*[#   4]+0.139*[#   7]
          +0.139*[#   8]+0.032*[#   1]+0.032*[#   5]
    |psi|^2 = 0.993
==== e(   4) =     3.80306 eV ==== 
     psi = 0.248*[#   3]+0.248*[#   4]+0.248*[#   7]+0.248*[#   8]
    |psi|^2 = 0.992

 k =   0.4499770426 -0.4499770426 -0.0642824347
==== e(   1) =    -2.90572 eV ==== 
     psi = 0.332*[#   1]+0.332*[#   5]+0.062*[#   2]+0.062*[#   6]+0.052*[#   3]
          +0.052*[#   4]+0.052*[#   7]+0.052*[#   8]
    |psi|^2 = 0.996
==== e(   2) =    -0.62033 eV ==== 
     psi = 0.213*[#   1]+0.213*[#   5]+0.164*[#   2]+0.164*[#   6]+0.059*[#   3]
          +0.059*[#   4]+0.059*[#   7]+0.059*[#   8]
    |psi|^2 = 0.992
==== e(   3) =     1.82877 eV ==== 
     psi = 0.215*[#   2]+0.215*[#   6]+0.127*[#   3]+0.127*[#   4]+0.127*[#   7]
          +0.127*[#   8]+0.028*[#   1]+0.028*[#   5]
    |psi|^2 = 0.993
==== e(   4) =     4.07889 eV ==== 
     psi = 0.248*[#   3]+0.248*[#   4]+0.248*[#   7]+0.248*[#   8]
    |psi|^2 = 0.992

 k =   0.3856946079 -0.3856946079  0.0000000000
==== e(   1) =    -3.54327 eV ==== 
     psi = 0.328*[#   1]+0.328*[#   5]+0.071*[#   3]+0.071*[#   4]+0.071*[#   7]
          +0.071*[#   8]+0.028*[#   2]+0.028*[#   6]
    |psi|^2 = 0.995
==== e(   2) =     0.14166 eV ==== 
     psi = 0.216*[#   1]+0.216*[#   5]+0.153*[#   2]+0.153*[#   6]+0.064*[#   3]
          +0.064*[#   4]+0.064*[#   7]+0.064*[#   8]
    |psi|^2 = 0.993
==== e(   3) =     1.98953 eV ==== 
     psi = 0.235*[#   2]+0.235*[#   6]+0.115*[#   3]+0.115*[#   4]+0.115*[#   7]
          +0.115*[#   8]+0.031*[#   1]+0.031*[#   5]
    |psi|^2 = 0.992
==== e(   4) =     4.48308 eV ==== 
     psi = 0.247*[#   3]+0.247*[#   4]+0.247*[#   7]+0.247*[#   8]
    |psi|^2 = 0.990

 k =   0.0000000000  0.0000000000  0.5142594772
==== e(   1) =    -3.67283 eV ==== 
     psi = 0.306*[#   1]+0.306*[#   5]+0.191*[#   2]+0.191*[#   6]
    |psi|^2 = 0.994
==== e(   2) =     0.47624 eV ==== 
     psi = 0.250*[#   1]+0.250*[#   5]+0.245*[#   2]+0.245*[#   6]
    |psi|^2 = 0.991
==== e(   3) =     3.47509 eV ==== 
     psi = 0.466*[#   4]+0.444*[#   7]+0.053*[#   8]+0.031*[#   3]
    |psi|^2 = 0.993
==== e(   4) =     3.47509 eV ==== 
     psi = 0.466*[#   3]+0.444*[#   8]+0.053*[#   7]+0.031*[#   4]
    |psi|^2 = 0.993

 k =  -0.0642824347  0.0642824347  0.5785419119
==== e(   1) =    -3.05041 eV ==== 
     psi = 0.297*[#   1]+0.297*[#   5]+0.195*[#   2]+0.195*[#   6]+0.002*[#   3]
          +0.002*[#   4]+0.002*[#   7]+0.002*[#   8]
    |psi|^2 = 0.994
==== e(   2) =    -0.33705 eV ==== 
     psi = 0.262*[#   1]+0.262*[#   5]+0.221*[#   2]+0.221*[#   6]+0.007*[#   3]
          +0.007*[#   4]+0.007*[#   7]+0.007*[#   8]
    |psi|^2 = 0.992
==== e(   3) =     2.92822 eV ==== 
     psi = 0.222*[#   3]+0.222*[#   4]+0.222*[#   7]+0.222*[#   8]+0.044*[#   2]
          +0.044*[#   6]+0.009*[#   1]+0.009*[#   5]
    |psi|^2 = 0.993
==== e(   4) =     3.37008 eV ==== 
     psi = 0.248*[#   3]+0.248*[#   4]+0.248*[#   7]+0.248*[#   8]
    |psi|^2 = 0.994

 k =   0.5785419119 -0.5785419119 -0.0642824347
==== e(   1) =    -2.37376 eV ==== 
     psi = 0.300*[#   1]+0.300*[#   5]+0.177*[#   2]+0.177*[#   6]+0.010*[#   3]
          +0.010*[#   4]+0.010*[#   7]+0.010*[#   8]
    |psi|^2 = 0.994
==== e(   2) =    -1.05367 eV ==== 
     psi = 0.267*[#   1]+0.267*[#   5]+0.191*[#   2]+0.191*[#   6]+0.020*[#   3]
          +0.020*[#   4]+0.020*[#   7]+0.020*[#   8]
    |psi|^2 = 0.993
==== e(   3) =     2.13509 eV ==== 
     psi = 0.193*[#   3]+0.193*[#   4]+0.193*[#   7]+0.193*[#   8]+0.105*[#   2]
          +0.105*[#   6]+0.006*[#   1]+0.006*[#   5]
    |psi|^2 = 0.994
==== e(   4) =     3.44373 eV ==== 
     psi = 0.248*[#   3]+0.248*[#   4]+0.248*[#   7]+0.248*[#   8]
    |psi|^2 = 0.994

 k =   0.5142594772 -0.5142594772  0.0000000000
==== e(   1) =    -2.30548 eV ==== 
     psi = 0.322*[#   1]+0.322*[#   5]+0.109*[#   2]+0.109*[#   6]+0.033*[#   3]
          +0.033*[#   4]+0.033*[#   7]+0.033*[#   8]
    |psi|^2 = 0.995
==== e(   2) =    -1.08832 eV ==== 
     psi = 0.249*[#   1]+0.249*[#   5]+0.190*[#   2]+0.190*[#   6]+0.029*[#   3]
          +0.029*[#   4]+0.029*[#   7]+0.029*[#   8]
    |psi|^2 = 0.993
==== e(   3) =     1.64238 eV ==== 
     psi = 0.166*[#   3]+0.166*[#   4]+0.166*[#   7]+0.166*[#   8]+0.163*[#   2]
          +0.163*[#   6]
    |psi|^2 = 0.993
==== e(   4) =     3.68900 eV ==== 
     psi = 0.248*[#   3]+0.248*[#   4]+0.248*[#   7]+0.248*[#   8]
    |psi|^2 = 0.993

 k =   0.0000000000  0.0000000000  0.6428243465
==== e(   1) =    -2.46704 eV ==== 
     psi = 0.286*[#   1]+0.286*[#   5]+0.211*[#   2]+0.211*[#   6]
    |psi|^2 = 0.993
==== e(   2) =    -1.06535 eV ==== 
     psi = 0.269*[#   1]+0.269*[#   5]+0.227*[#   2]+0.227*[#   6]
    |psi|^2 = 0.992
==== e(   3) =     3.21612 eV ==== 
     psi = 0.411*[#   3]+0.405*[#   8]+0.092*[#   7]+0.086*[#   4]
    |psi|^2 = 0.994
==== e(   4) =     3.21612 eV ==== 
     psi = 0.411*[#   4]+0.405*[#   7]+0.092*[#   8]+0.086*[#   3]
    |psi|^2 = 0.994

 k =   0.6428243465 -0.6428243465 -0.0000000000
==== e(   1) =    -1.82006 eV ==== 
     psi = 0.285*[#   1]+0.285*[#   5]+0.207*[#   2]+0.207*[#   6]+0.002*[#   3]
          +0.002*[#   4]+0.002*[#   7]+0.002*[#   8]
    |psi|^2 = 0.993
==== e(   2) =    -1.70962 eV ==== 
     psi = 0.273*[#   1]+0.273*[#   5]+0.216*[#   2]+0.216*[#   6]+0.004*[#   3]
          +0.004*[#   4]+0.004*[#   7]+0.004*[#   8]
    |psi|^2 = 0.993
==== e(   3) =     2.76157 eV ==== 
     psi = 0.225*[#   3]+0.225*[#   4]+0.225*[#   7]+0.225*[#   8]+0.040*[#   2]
          +0.040*[#   6]+0.007*[#   1]+0.007*[#   5]
    |psi|^2 = 0.993
==== e(   4) =     3.24144 eV ==== 
     psi = 0.249*[#   3]+0.249*[#   4]+0.249*[#   7]+0.249*[#   8]
    |psi|^2 = 0.994

 k =   0.0000000000  0.1285648693  0.2571297386
==== e(   1) =    -5.21294 eV ==== 
     psi = 0.382*[#   1]+0.382*[#   5]+0.093*[#   2]+0.093*[#   6]+0.021*[#   4]
          +0.021*[#   8]+0.001*[#   3]+0.001*[#   7]
    |psi|^2 = 0.996
==== e(   2) =     2.99136 eV ==== 
     psi = 0.174*[#   2]+0.174*[#   6]+0.159*[#   1]+0.159*[#   5]+0.081*[#   4]
          +0.081*[#   8]+0.079*[#   3]+0.079*[#   7]
    |psi|^2 = 0.985
==== e(   3) =     4.18619 eV ==== 
     psi = 0.291*[#   3]+0.291*[#   7]+0.127*[#   4]+0.127*[#   8]+0.049*[#   2]
          +0.049*[#   6]+0.027*[#   1]+0.027*[#   5]
    |psi|^2 = 0.986
==== e(   4) =     5.20972 eV ==== 
     psi = 0.259*[#   4]+0.259*[#   8]+0.159*[#   2]+0.159*[#   6]+0.060*[#   3]
          +0.060*[#   7]+0.014*[#   1]+0.014*[#   5]
    |psi|^2 = 0.982

 k =  -0.0642824347  0.1928473040  0.3214121733
==== e(   1) =    -4.69951 eV ==== 
     psi = 0.352*[#   1]+0.352*[#   5]+0.105*[#   2]+0.105*[#   6]+0.033*[#   4]
          +0.033*[#   8]+0.007*[#   3]+0.007*[#   7]
    |psi|^2 = 0.995
==== e(   2) =     1.66933 eV ==== 
     psi = 0.172*[#   1]+0.172*[#   5]+0.127*[#   2]+0.127*[#   6]+0.111*[#   3]
          +0.111*[#   7]+0.084*[#   4]+0.084*[#   8]
    |psi|^2 = 0.989
==== e(   3) =     3.61991 eV ==== 
     psi = 0.251*[#   3]+0.251*[#   7]+0.110*[#   4]+0.110*[#   8]+0.086*[#   2]
          +0.086*[#   6]+0.047*[#   1]+0.047*[#   5]
    |psi|^2 = 0.989
==== e(   4) =     4.88925 eV ==== 
     psi = 0.251*[#   4]+0.251*[#   8]+0.176*[#   2]+0.176*[#   6]+0.055*[#   3]
          +0.055*[#   7]+0.011*[#   1]+0.011*[#   5]
    |psi|^2 = 0.986

 k =  -0.1285648693  0.2571297386  0.3856946079
==== e(   1) =    -4.03947 eV ==== 
     psi = 0.340*[#   1]+0.340*[#   5]+0.102*[#   2]+0.102*[#   6]+0.037*[#   4]
          +0.037*[#   8]+0.018*[#   3]+0.018*[#   7]
    |psi|^2 = 0.995
==== e(   2) =     0.32195 eV ==== 
     psi = 0.170*[#   1]+0.170*[#   5]+0.130*[#   3]+0.130*[#   7]+0.103*[#   2]
          +0.103*[#   6]+0.092*[#   4]+0.092*[#   8]
    |psi|^2 = 0.990
==== e(   3) =     3.36265 eV ==== 
     psi = 0.228*[#   3]+0.228*[#   7]+0.123*[#   2]+0.123*[#   6]+0.083*[#   4]
          +0.083*[#   8]+0.062*[#   1]+0.062*[#   5]
    |psi|^2 = 0.990
==== e(   4) =     4.54412 eV ==== 
     psi = 0.260*[#   4]+0.260*[#   8]+0.164*[#   2]+0.164*[#   6]+0.064*[#   3]
          +0.064*[#   7]+0.006*[#   1]+0.006*[#   5]
    |psi|^2 = 0.988

 k =   0.5142594772 -0.3856946079 -0.2571297386
==== e(   1) =    -3.42104 eV ==== 
     psi = 0.354*[#   1]+0.354*[#   5]+0.077*[#   2]+0.077*[#   6]+0.035*[#   3]
          +0.035*[#   7]+0.032*[#   4]+0.032*[#   8]
    |psi|^2 = 0.996
==== e(   2) =    -0.66447 eV ==== 
     psi = 0.149*[#   1]+0.149*[#   5]+0.133*[#   3]+0.133*[#   7]+0.109*[#   2]
          +0.109*[#   6]+0.103*[#   4]+0.103*[#   8]
    |psi|^2 = 0.989
==== e(   3) =     3.26324 eV ==== 
     psi = 0.201*[#   3]+0.201*[#   7]+0.162*[#   2]+0.162*[#   6]+0.070*[#   1]
          +0.070*[#   5]+0.062*[#   4]+0.062*[#   8]
    |psi|^2 = 0.991
==== e(   4) =     4.33293 eV ==== 
     psi = 0.274*[#   4]+0.274*[#   8]+0.129*[#   2]+0.129*[#   6]+0.089*[#   3]
          +0.089*[#   7]+0.002*[#   1]+0.002*[#   5]
    |psi|^2 = 0.989

 k =   0.0000000000  0.1285648693  0.3856946079
==== e(   1) =    -4.51447 eV ==== 
     psi = 0.338*[#   1]+0.338*[#   5]+0.145*[#   2]+0.145*[#   6]+0.012*[#   4]
          +0.012*[#   8]+0.003*[#   3]+0.003*[#   7]
    |psi|^2 = 0.995
==== e(   2) =     1.70585 eV ==== 
     psi = 0.211*[#   1]+0.211*[#   5]+0.194*[#   2]+0.194*[#   6]+0.057*[#   3]
          +0.057*[#   7]+0.032*[#   4]+0.032*[#   8]
    |psi|^2 = 0.989
==== e(   3) =     3.46789 eV ==== 
     psi = 0.266*[#   3]+0.266*[#   7]+0.162*[#   4]+0.162*[#   8]+0.040*[#   2]
          +0.040*[#   6]+0.026*[#   1]+0.026*[#   5]
    |psi|^2 = 0.991
==== e(   4) =     4.19701 eV ==== 
     psi = 0.257*[#   4]+0.257*[#   8]+0.134*[#   3]+0.134*[#   7]+0.095*[#   2]
          +0.095*[#   6]+0.009*[#   1]+0.009*[#   5]
    |psi|^2 = 0.989

 k =  -0.0642824347  0.1928473040  0.4499770426
==== e(   1) =    -3.89577 eV ==== 
     psi = 0.324*[#   1]+0.324*[#   5]+0.146*[#   2]+0.146*[#   6]+0.018*[#   4]
          +0.018*[#   8]+0.010*[#   3]+0.010*[#   7]
    |psi|^2 = 0.995
==== e(   2) =     0.62476 eV ==== 
     psi = 0.216*[#   1]+0.216*[#   5]+0.145*[#   2]+0.145*[#   6]+0.088*[#   3]
          +0.088*[#   7]+0.046*[#   4]+0.046*[#   8]
    |psi|^2 = 0.991
==== e(   3) =     2.88652 eV ==== 
     psi = 0.221*[#   3]+0.221*[#   7]+0.134*[#   4]+0.134*[#   8]+0.098*[#   2]
          +0.098*[#   6]+0.043*[#   1]+0.043*[#   5]
    |psi|^2 = 0.992
==== e(   4) =     3.88000 eV ==== 
     psi = 0.245*[#   4]+0.245*[#   8]+0.142*[#   3]+0.142*[#   7]+0.104*[#   2]
          +0.104*[#   6]+0.004*[#   1]+0.004*[#   5]
    |psi|^2 = 0.990

 k =   0.5785419119 -0.4499770426 -0.1928473040
==== e(   1) =    -3.21980 eV ==== 
     psi = 0.328*[#   1]+0.328*[#   5]+0.126*[#   2]+0.126*[#   6]+0.025*[#   3]
          +0.025*[#   7]+0.019*[#   4]+0.019*[#   8]
    |psi|^2 = 0.995
==== e(   2) =    -0.38916 eV ==== 
     psi = 0.202*[#   1]+0.202*[#   5]+0.117*[#   2]+0.117*[#   6]+0.110*[#   3]
          +0.110*[#   7]+0.066*[#   4]+0.066*[#   8]
    |psi|^2 = 0.991
==== e(   3) =     2.49840 eV ==== 
     psi = 0.168*[#   3]+0.168*[#   7]+0.166*[#   2]+0.166*[#   6]+0.110*[#   4]
          +0.110*[#   8]+0.053*[#   1]+0.053*[#   5]
    |psi|^2 = 0.993
==== e(   4) =     3.72349 eV ==== 
     psi = 0.243*[#   4]+0.243*[#   8]+0.173*[#   3]+0.173*[#   7]+0.077*[#   2]
          +0.077*[#   6]+0.002*[#   1]+0.002*[#   5]
    |psi|^2 = 0.991

 k =   0.5142594772 -0.3856946079 -0.1285648693
==== e(   1) =    -2.95043 eV ==== 
     psi = 0.340*[#   1]+0.340*[#   5]+0.068*[#   2]+0.068*[#   6]+0.066*[#   3]
          +0.066*[#   7]+0.024*[#   4]+0.024*[#   8]
    |psi|^2 = 0.996
==== e(   2) =    -0.74153 eV ==== 
     psi = 0.187*[#   1]+0.187*[#   5]+0.138*[#   2]+0.138*[#   6]+0.100*[#   3]
          +0.100*[#   7]+0.071*[#   4]+0.071*[#   8]
    |psi|^2 = 0.991
==== e(   3) =     2.26640 eV ==== 
     psi = 0.207*[#   2]+0.207*[#   6]+0.129*[#   3]+0.129*[#   7]+0.109*[#   4]
          +0.109*[#   8]+0.052*[#   1]+0.052*[#   5]
    |psi|^2 = 0.993
==== e(   4) =     3.81379 eV ==== 
     psi = 0.235*[#   4]+0.235*[#   8]+0.200*[#   3]+0.200*[#   7]+0.056*[#   2]
          +0.056*[#   6]+0.003*[#   1]+0.003*[#   5]
    |psi|^2 = 0.990

 k =   0.4499770426 -0.3214121733 -0.0642824347
==== e(   1) =    -3.46025 eV ==== 
     psi = 0.328*[#   1]+0.328*[#   5]+0.103*[#   3]+0.103*[#   7]+0.039*[#   4]
          +0.039*[#   8]+0.027*[#   2]+0.027*[#   6]
    |psi|^2 = 0.995
==== e(   2) =    -0.04738 eV ==== 
     psi = 0.206*[#   1]+0.206*[#   5]+0.142*[#   2]+0.142*[#   6]+0.091*[#   3]
          +0.091*[#   7]+0.057*[#   4]+0.057*[#   8]
    |psi|^2 = 0.992
==== e(   3) =     2.25379 eV ==== 
     psi = 0.229*[#   2]+0.229*[#   6]+0.120*[#   4]+0.120*[#   8]+0.102*[#   3]
          +0.102*[#   7]+0.044*[#   1]+0.044*[#   5]
    |psi|^2 = 0.992
==== e(   4) =     4.11138 eV ==== 
     psi = 0.229*[#   4]+0.229*[#   8]+0.212*[#   3]+0.212*[#   7]+0.048*[#   2]
          +0.048*[#   6]+0.005*[#   1]+0.005*[#   5]
    |psi|^2 = 0.989

 k =   0.3856946079 -0.2571297386  0.0000000000
==== e(   1) =    -4.13794 eV ==== 
     psi = 0.333*[#   1]+0.333*[#   5]+0.112*[#   3]+0.112*[#   7]+0.041*[#   4]
          +0.041*[#   8]+0.011*[#   2]+0.011*[#   6]
    |psi|^2 = 0.995
==== e(   2) =     0.93692 eV ==== 
     psi = 0.206*[#   1]+0.206*[#   5]+0.120*[#   2]+0.120*[#   6]+0.113*[#   3]
          +0.113*[#   7]+0.057*[#   4]+0.057*[#   8]
    |psi|^2 = 0.991
==== e(   3) =     2.63251 eV ==== 
     psi = 0.247*[#   2]+0.247*[#   6]+0.128*[#   4]+0.128*[#   8]+0.080*[#   3]
          +0.080*[#   7]+0.040*[#   1]+0.040*[#   5]
    |psi|^2 = 0.991
==== e(   4) =     4.52934 eV ==== 
     psi = 0.233*[#   4]+0.233*[#   8]+0.206*[#   3]+0.206*[#   7]+0.048*[#   2]
          +0.048*[#   6]+0.007*[#   1]+0.007*[#   5]
    |psi|^2 = 0.987

 k =   0.0000000000  0.1285648693  0.5142594772
==== e(   1) =    -3.56290 eV ==== 
     psi = 0.309*[#   1]+0.309*[#   5]+0.178*[#   2]+0.178*[#   6]+0.006*[#   4]
          +0.006*[#   8]+0.005*[#   3]+0.005*[#   7]
    |psi|^2 = 0.994
==== e(   2) =     0.33989 eV ==== 
     psi = 0.251*[#   1]+0.251*[#   5]+0.207*[#   2]+0.207*[#   6]+0.031*[#   3]
          +0.031*[#   7]+0.007*[#   4]+0.007*[#   8]
    |psi|^2 = 0.991
==== e(   3) =     2.99138 eV ==== 
     psi = 0.251*[#   3]+0.251*[#   7]+0.188*[#   4]+0.188*[#   8]+0.037*[#   2]
          +0.037*[#   6]+0.020*[#   1]+0.020*[#   5]
    |psi|^2 = 0.993
==== e(   4) =     3.38936 eV ==== 
     psi = 0.249*[#   4]+0.249*[#   8]+0.188*[#   3]+0.188*[#   7]+0.059*[#   2]
          +0.059*[#   6]
    |psi|^2 = 0.992

 k =   0.6428243465 -0.5142594772 -0.1285648693
==== e(   1) =    -2.88050 eV ==== 
     psi = 0.305*[#   1]+0.305*[#   5]+0.168*[#   2]+0.168*[#   6]+0.016*[#   3]
          +0.016*[#   7]+0.007*[#   4]+0.007*[#   8]
    |psi|^2 = 0.994
==== e(   2) =    -0.48210 eV ==== 
     psi = 0.259*[#   1]+0.259*[#   5]+0.170*[#   2]+0.170*[#   6]+0.053*[#   3]
          +0.053*[#   7]+0.014*[#   4]+0.014*[#   8]
    |psi|^2 = 0.993
==== e(   3) =     2.33742 eV ==== 
     psi = 0.199*[#   3]+0.199*[#   7]+0.176*[#   4]+0.176*[#   8]+0.104*[#   2]
          +0.104*[#   6]+0.017*[#   1]+0.017*[#   5]
    |psi|^2 = 0.993
==== e(   4) =     3.20837 eV ==== 
     psi = 0.228*[#   4]+0.228*[#   8]+0.211*[#   3]+0.211*[#   7]+0.054*[#   2]
          +0.054*[#   6]+0.003*[#   1]+0.003*[#   5]
    |psi|^2 = 0.992

 k =   0.5785419119 -0.4499770426 -0.0642824347
==== e(   1) =    -2.40738 eV ==== 
     psi = 0.320*[#   1]+0.320*[#   5]+0.117*[#   2]+0.117*[#   6]+0.048*[#   3]
          +0.048*[#   7]+0.012*[#   4]+0.012*[#   8]
    |psi|^2 = 0.995
==== e(   2) =    -0.98349 eV ==== 
     psi = 0.248*[#   1]+0.248*[#   5]+0.160*[#   2]+0.160*[#   6]+0.063*[#   3]
          +0.063*[#   7]+0.026*[#   4]+0.026*[#   8]
    |psi|^2 = 0.993
==== e(   3) =     1.80856 eV ==== 
     psi = 0.167*[#   2]+0.167*[#   6]+0.165*[#   4]+0.165*[#   8]+0.156*[#   3]
          +0.156*[#   7]+0.010*[#   1]+0.010*[#   5]
    |psi|^2 = 0.994
==== e(   4) =     3.32540 eV ==== 
     psi = 0.227*[#   3]+0.227*[#   7]+0.220*[#   4]+0.220*[#   8]+0.044*[#   2]
          +0.044*[#   6]+0.005*[#   1]+0.005*[#   5]
    |psi|^2 = 0.992

 k =   0.5142594772 -0.3856946079  0.0000000000
==== e(   1) =    -2.79479 eV ==== 
     psi = 0.323*[#   1]+0.323*[#   5]+0.089*[#   3]+0.089*[#   7]+0.056*[#   2]
          +0.056*[#   6]+0.030*[#   4]+0.030*[#   8]
    |psi|^2 = 0.995
==== e(   2) =    -0.58284 eV ==== 
     psi = 0.242*[#   1]+0.242*[#   5]+0.159*[#   2]+0.159*[#   6]+0.067*[#   3]
          +0.067*[#   7]+0.028*[#   4]+0.028*[#   8]
    |psi|^2 = 0.993
==== e(   3) =     1.70258 eV ==== 
     psi = 0.210*[#   2]+0.210*[#   6]+0.152*[#   4]+0.152*[#   8]+0.122*[#   3]
          +0.122*[#   7]+0.013*[#   1]+0.013*[#   5]
    |psi|^2 = 0.993
==== e(   4) =     3.65096 eV ==== 
     psi = 0.229*[#   3]+0.229*[#   7]+0.218*[#   4]+0.218*[#   8]+0.043*[#   2]
          +0.043*[#   6]+0.006*[#   1]+0.006*[#   5]
    |psi|^2 = 0.991

 k =   0.7071067812 -0.5785419119 -0.0642824347
==== e(   1) =    -2.39257 eV ==== 
     psi = 0.290*[#   1]+0.290*[#   5]+0.197*[#   2]+0.197*[#   6]+0.009*[#   3]
          +0.009*[#   7]+0.001*[#   4]+0.001*[#   8]
    |psi|^2 = 0.994
==== e(   2) =    -1.06145 eV ==== 
     psi = 0.273*[#   1]+0.273*[#   5]+0.207*[#   2]+0.207*[#   6]+0.016*[#   3]
          +0.016*[#   7]
    |psi|^2 = 0.993
==== e(   3) =     2.80020 eV ==== 
     psi = 0.237*[#   3]+0.237*[#   7]+0.210*[#   4]+0.210*[#   8]+0.038*[#   2]
          +0.038*[#   6]+0.011*[#   1]+0.011*[#   5]
    |psi|^2 = 0.993
==== e(   4) =     2.92377 eV ==== 
     psi = 0.231*[#   4]+0.231*[#   8]+0.219*[#   3]+0.219*[#   7]+0.043*[#   2]
          +0.043*[#   6]+0.003*[#   1]+0.003*[#   5]
    |psi|^2 = 0.993

 k =   0.6428243465 -0.5142594772  0.0000000000
==== e(   1) =    -1.88389 eV ==== 
     psi = 0.302*[#   1]+0.302*[#   5]+0.164*[#   2]+0.164*[#   6]+0.029*[#   3]
          +0.029*[#   7]+0.002*[#   4]+0.002*[#   8]
    |psi|^2 = 0.994
==== e(   2) =    -1.50918 eV ==== 
     psi = 0.272*[#   1]+0.272*[#   5]+0.193*[#   2]+0.193*[#   6]+0.027*[#   3]
          +0.027*[#   7]+0.005*[#   4]+0.005*[#   8]
    |psi|^2 = 0.993
==== e(   3) =     2.12592 eV ==== 
     psi = 0.196*[#   4]+0.196*[#   8]+0.196*[#   3]+0.196*[#   7]+0.101*[#   2]
          +0.101*[#   6]+0.003*[#   1]+0.003*[#   5]
    |psi|^2 = 0.994
==== e(   4) =     2.99610 eV ==== 
     psi = 0.232*[#   3]+0.232*[#   7]+0.218*[#   4]+0.218*[#   8]+0.041*[#   2]
          +0.041*[#   6]+0.006*[#   1]+0.006*[#   5]
    |psi|^2 = 0.993

 k =   0.7071067812 -0.4499770426 -0.1928473040
==== e(   1) =    -3.25042 eV ==== 
     psi = 0.315*[#   1]+0.315*[#   5]+0.142*[#   2]+0.142*[#   6]+0.022*[#   3]
          +0.022*[#   7]+0.018*[#   4]+0.018*[#   8]
    |psi|^2 = 0.995
==== e(   2) =    -0.05464 eV ==== 
     psi = 0.246*[#   1]+0.246*[#   5]+0.129*[#   2]+0.129*[#   6]+0.101*[#   3]
          +0.101*[#   7]+0.021*[#   4]+0.021*[#   8]
    |psi|^2 = 0.993
==== e(   3) =     2.22109 eV ==== 
     psi = 0.233*[#   3]+0.233*[#   7]+0.159*[#   4]+0.159*[#   8]+0.079*[#   2]
          +0.079*[#   6]+0.026*[#   1]+0.026*[#   5]
    |psi|^2 = 0.993
==== e(   4) =     3.40657 eV ==== 
     psi = 0.216*[#   4]+0.216*[#   8]+0.160*[#   2]+0.160*[#   6]+0.115*[#   3]
          +0.115*[#   7]+0.004*[#   1]+0.004*[#   5]
    |psi|^2 = 0.991

 k =   0.6428243465 -0.3856946079 -0.1285648693
==== e(   1) =    -2.61267 eV ==== 
     psi = 0.319*[#   1]+0.319*[#   5]+0.114*[#   2]+0.114*[#   6]+0.052*[#   3]
          +0.052*[#   7]+0.012*[#   4]+0.012*[#   8]
    |psi|^2 = 0.995
==== e(   2) =    -0.75669 eV ==== 
     psi = 0.247*[#   1]+0.247*[#   5]+0.118*[#   3]+0.118*[#   7]+0.108*[#   2]
          +0.108*[#   6]+0.024*[#   4]+0.024*[#   8]
    |psi|^2 = 0.993
==== e(   3) =     1.93773 eV ==== 
     psi = 0.193*[#   3]+0.193*[#   7]+0.155*[#   4]+0.155*[#   8]+0.128*[#   2]
          +0.128*[#   6]+0.021*[#   1]+0.021*[#   5]
    |psi|^2 = 0.993
==== e(   4) =     3.08241 eV ==== 
     psi = 0.211*[#   4]+0.211*[#   8]+0.156*[#   2]+0.156*[#   6]+0.126*[#   3]
          +0.126*[#   7]+0.003*[#   1]+0.003*[#   5]
    |psi|^2 = 0.992

 k =   0.7071067812 -0.4499770426 -0.0642824347
==== e(   1) =    -2.20395 eV ==== 
     psi = 0.300*[#   1]+0.300*[#   5]+0.154*[#   2]+0.154*[#   6]+0.039*[#   3]
          +0.039*[#   7]+0.003*[#   4]+0.003*[#   8]
    |psi|^2 = 0.995
==== e(   2) =    -1.10309 eV ==== 
     psi = 0.280*[#   1]+0.280*[#   5]+0.148*[#   2]+0.148*[#   6]+0.067*[#   3]
          +0.067*[#   7]+0.001*[#   4]+0.001*[#   8]
    |psi|^2 = 0.994
==== e(   3) =     2.17119 eV ==== 
     psi = 0.210*[#   3]+0.210*[#   7]+0.186*[#   4]+0.186*[#   8]+0.091*[#   2]
          +0.091*[#   6]+0.009*[#   1]+0.009*[#   5]
    |psi|^2 = 0.994
==== e(   4) =     2.55753 eV ==== 
     psi = 0.206*[#   4]+0.206*[#   8]+0.172*[#   3]+0.172*[#   7]+0.119*[#   2]
          +0.119*[#   6]
    |psi|^2 = 0.993

 k =   0.6428243465 -0.3856946079  0.0000000000
==== e(   1) =    -2.00192 eV ==== 
     psi = 0.309*[#   1]+0.309*[#   5]+0.097*[#   2]+0.097*[#   6]+0.089*[#   3]
          +0.089*[#   7]+0.003*[#   4]+0.003*[#   8]
    |psi|^2 = 0.995
==== e(   2) =    -1.26849 eV ==== 
     psi = 0.278*[#   1]+0.278*[#   5]+0.138*[#   2]+0.138*[#   6]+0.077*[#   3]
          +0.077*[#   7]+0.004*[#   4]+0.004*[#   8]
    |psi|^2 = 0.994
==== e(   3) =     1.88633 eV ==== 
     psi = 0.183*[#   4]+0.183*[#   8]+0.165*[#   2]+0.165*[#   6]+0.148*[#   3]
          +0.148*[#   7]
    |psi|^2 = 0.994
==== e(   4) =     2.59429 eV ==== 
     psi = 0.199*[#   4]+0.199*[#   8]+0.188*[#   3]+0.188*[#   7]+0.106*[#   2]
          +0.106*[#   6]+0.003*[#   1]+0.003*[#   5]
    |psi|^2 = 0.993

Lowdin Charges: 

     Atom #   1: total charge =   3.9646, s =  1.1504, 
     Atom #   1: total charge =   3.9646, p =  2.8142, p1=  0.9352, p2=  0.9582, p3=  0.9208, 
     Atom #   2: total charge =   3.9646, s =  1.1504, 
     Atom #   2: total charge =   3.9646, p =  2.8142, p1=  0.9352, p2=  0.9582, p3=  0.9208, 
     Spilling Parameter:   0.0089
