
     Program PWSCF v.7.3.1 starts on  5Aug2024 at  9:39:24 

     This program is part of the open-source Quantum ESPRESSO suite
     for quantum simulation of materials; please cite
         "P. Giannozzi et al., J. Phys.:Condens. Matter 21 395502 (2009);
         "P. Giannozzi et al., J. Phys.:Condens. Matter 29 465901 (2017);
         "P. Giannozzi et al., J. Chem. Phys. 152 154105 (2020);
          URL http://www.quantum-espresso.org", 
     in publications or presentations arising from this work. More details at
     http://www.quantum-espresso.org/quote

     Parallel version (MPI), running on     1 processors

     MPI processes distributed on     1 nodes
     4522 MiB available memory on the printing compute node when the environment starts

     Reading input from si_pbe.pwi

     Current dimensions of program PWSCF are:
     Max number of different atomic species (ntypx) = 10
     Max number of k-points (npk) =  40000
     Max angular momentum in pseudopotentials (lmaxx) =  4
     Message from routine volume:
     axis vectors are left-handed
     Message from routine setup:
     using ibrav=0 with symmetry is DISCOURAGED, use correct ibrav instead

     Subspace diagonalization in iterative solution of the eigenvalue problem:
     a serial algorithm will be used


     G-vector sticks info
     --------------------
     sticks:   dense  smooth     PW     G-vecs:    dense   smooth      PW
     Sum         859     433    151                16889     5985    1139

     Using Slab Decomposition



     bravais-lattice index     =            0
     lattice parameter (alat)  =       7.2571  a.u.
     unit-cell volume          =     270.2504 (a.u.)^3
     number of atoms/cell      =            2
     number of atomic types    =            1
     number of electrons       =         8.00
     number of Kohn-Sham states=            4
     kinetic-energy cutoff     =      30.0000  Ry
     charge density cutoff     =     240.0000  Ry
     scf convergence threshold =      4.0E-10
     mixing beta               =       0.4000
     number of iterations used =            8  plain     mixing
     Exchange-correlation= PBE
                           (   1   4   3   4   0   0   0)

     celldm(1)=   7.257056  celldm(2)=   0.000000  celldm(3)=   0.000000
     celldm(4)=   0.000000  celldm(5)=   0.000000  celldm(6)=   0.000000

     crystal axes: (cart. coord. in units of alat)
               a(1) = (   0.707107   0.707107   0.000000 )  
               a(2) = (   0.707107   0.000000   0.707107 )  
               a(3) = (   0.000000   0.707107   0.707107 )  

     reciprocal axes: (cart. coord. in units 2 pi/alat)
               b(1) = (  0.707107  0.707107 -0.707107 )  
               b(2) = (  0.707107 -0.707107  0.707107 )  
               b(3) = ( -0.707107  0.707107  0.707107 )  


     PseudoPot. # 1 for Si read from file:
     ./pseudo/Si_pbe.upf
     MD5 check sum: 02fab3f35e82123ef5bf1cb05d5b1a5e
     Pseudo is Norm-conserving + core correction, Zval =  4.0
     Generated using ONCVPSP code by D. R. Hamann
     Using radial grid of 1510 points,  6 beta functions with: 
                l(1) =   0
                l(2) =   0
                l(3) =   1
                l(4) =   1
                l(5) =   2
                l(6) =   2

     atomic species   valence    mass     pseudopotential
     Si                4.00    28.08550     Si( 1.00)

     48 Sym. Ops., with inversion, found (24 have fractional translation)


                                    s                        frac. trans.

      isym =  1     identity                                     

 cryst.   s( 1) = (     1          0          0      )
                  (     0          1          0      )
                  (     0          0          1      )

 cart.    s( 1) = (  1.0000000  0.0000000  0.0000000 )
                  (  0.0000000  1.0000000  0.0000000 )
                  (  0.0000000  0.0000000  1.0000000 )


      isym =  2     180 deg rotation - cart. axis [0,0,1]        

 cryst.   s( 2) = (    -1          0          0      )
                  (    -1          0          1      )
                  (    -1          1          0      )

 cart.    s( 2) = ( -1.0000000  0.0000000  0.0000000 )
                  (  0.0000000 -1.0000000  0.0000000 )
                  (  0.0000000  0.0000000  1.0000000 )


      isym =  3     180 deg rotation - cart. axis [0,1,0]        

 cryst.   s( 3) = (     0         -1          1      )
                  (     0         -1          0      )
                  (     1         -1          0      )

 cart.    s( 3) = ( -1.0000000  0.0000000  0.0000000 )
                  (  0.0000000  1.0000000  0.0000000 )
                  (  0.0000000  0.0000000 -1.0000000 )


      isym =  4     180 deg rotation - cart. axis [1,0,0]        

 cryst.   s( 4) = (     0          1         -1      )
                  (     1          0         -1      )
                  (     0          0         -1      )

 cart.    s( 4) = (  1.0000000  0.0000000  0.0000000 )
                  (  0.0000000 -1.0000000  0.0000000 )
                  (  0.0000000  0.0000000 -1.0000000 )


      isym =  5     180 deg rotation - cart. axis [1,1,0]        

 cryst.   s( 5) = (     1          0          0      )    f =( -0.2500000 )
                  (     1         -1          0      )       ( -0.2500000 )
                  (     1          0         -1      )       ( -0.2500000 )

 cart.    s( 5) = (  0.0000000  1.0000000  0.0000000 )    f =( -0.3535534 )
                  (  1.0000000  0.0000000  0.0000000 )       ( -0.3535534 )
                  (  0.0000000  0.0000000 -1.0000000 )       ( -0.3535534 )


      isym =  6     180 deg rotation - cart. axis [1,-1,0]       

 cryst.   s( 6) = (    -1          0          0      )    f =( -0.2500000 )
                  (     0          0         -1      )       ( -0.2500000 )
                  (     0         -1          0      )       ( -0.2500000 )

 cart.    s( 6) = (  0.0000000 -1.0000000  0.0000000 )    f =( -0.3535534 )
                  ( -1.0000000  0.0000000  0.0000000 )       ( -0.3535534 )
                  (  0.0000000  0.0000000 -1.0000000 )       ( -0.3535534 )


      isym =  7      90 deg rotation - cart. axis [0,0,-1]       

 cryst.   s( 7) = (     0          1         -1      )    f =( -0.2500000 )
                  (    -1          1          0      )       ( -0.2500000 )
                  (     0          1          0      )       ( -0.2500000 )

 cart.    s( 7) = (  0.0000000  1.0000000  0.0000000 )    f =( -0.3535534 )
                  ( -1.0000000  0.0000000  0.0000000 )       ( -0.3535534 )
                  (  0.0000000  0.0000000  1.0000000 )       ( -0.3535534 )


      isym =  8      90 deg rotation - cart. axis [0,0,1]        

 cryst.   s( 8) = (     0         -1          1      )    f =( -0.2500000 )
                  (     0          0          1      )       ( -0.2500000 )
                  (    -1          0          1      )       ( -0.2500000 )

 cart.    s( 8) = (  0.0000000 -1.0000000  0.0000000 )    f =( -0.3535534 )
                  (  1.0000000  0.0000000  0.0000000 )       ( -0.3535534 )
                  (  0.0000000  0.0000000  1.0000000 )       ( -0.3535534 )


      isym =  9     180 deg rotation - cart. axis [1,0,1]        

 cryst.   s( 9) = (    -1          1          0      )    f =( -0.2500000 )
                  (     0          1          0      )       ( -0.2500000 )
                  (     0          1         -1      )       ( -0.2500000 )

 cart.    s( 9) = (  0.0000000  0.0000000  1.0000000 )    f =( -0.3535534 )
                  (  0.0000000 -1.0000000  0.0000000 )       ( -0.3535534 )
                  (  1.0000000  0.0000000  0.0000000 )       ( -0.3535534 )


      isym = 10     180 deg rotation - cart. axis [-1,0,1]       

 cryst.   s(10) = (     0          0         -1      )    f =( -0.2500000 )
                  (     0         -1          0      )       ( -0.2500000 )
                  (    -1          0          0      )       ( -0.2500000 )

 cart.    s(10) = (  0.0000000  0.0000000 -1.0000000 )    f =( -0.3535534 )
                  (  0.0000000 -1.0000000  0.0000000 )       ( -0.3535534 )
                  ( -1.0000000  0.0000000  0.0000000 )       ( -0.3535534 )


      isym = 11      90 deg rotation - cart. axis [0,1,0]        

 cryst.   s(11) = (     1         -1          0      )    f =( -0.2500000 )
                  (     1          0         -1      )       ( -0.2500000 )
                  (     1          0          0      )       ( -0.2500000 )

 cart.    s(11) = (  0.0000000  0.0000000  1.0000000 )    f =( -0.3535534 )
                  (  0.0000000  1.0000000  0.0000000 )       ( -0.3535534 )
                  ( -1.0000000  0.0000000  0.0000000 )       ( -0.3535534 )


      isym = 12      90 deg rotation - cart. axis [0,-1,0]       

 cryst.   s(12) = (     0          0          1      )    f =( -0.2500000 )
                  (    -1          0          1      )       ( -0.2500000 )
                  (     0         -1          1      )       ( -0.2500000 )

 cart.    s(12) = (  0.0000000  0.0000000 -1.0000000 )    f =( -0.3535534 )
                  (  0.0000000  1.0000000  0.0000000 )       ( -0.3535534 )
                  (  1.0000000  0.0000000  0.0000000 )       ( -0.3535534 )


      isym = 13     180 deg rotation - cart. axis [0,1,1]        

 cryst.   s(13) = (    -1          0          1      )    f =( -0.2500000 )
                  (     0         -1          1      )       ( -0.2500000 )
                  (     0          0          1      )       ( -0.2500000 )

 cart.    s(13) = ( -1.0000000  0.0000000  0.0000000 )    f =( -0.3535534 )
                  (  0.0000000  0.0000000  1.0000000 )       ( -0.3535534 )
                  (  0.0000000  1.0000000  0.0000000 )       ( -0.3535534 )


      isym = 14     180 deg rotation - cart. axis [0,1,-1]       

 cryst.   s(14) = (     0         -1          0      )    f =( -0.2500000 )
                  (    -1          0          0      )       ( -0.2500000 )
                  (     0          0         -1      )       ( -0.2500000 )

 cart.    s(14) = ( -1.0000000  0.0000000  0.0000000 )    f =( -0.3535534 )
                  (  0.0000000  0.0000000 -1.0000000 )       ( -0.3535534 )
                  (  0.0000000 -1.0000000  0.0000000 )       ( -0.3535534 )


      isym = 15      90 deg rotation - cart. axis [-1,0,0]       

 cryst.   s(15) = (     1          0         -1      )    f =( -0.2500000 )
                  (     1          0          0      )       ( -0.2500000 )
                  (     1         -1          0      )       ( -0.2500000 )

 cart.    s(15) = (  1.0000000  0.0000000  0.0000000 )    f =( -0.3535534 )
                  (  0.0000000  0.0000000  1.0000000 )       ( -0.3535534 )
                  (  0.0000000 -1.0000000  0.0000000 )       ( -0.3535534 )


      isym = 16      90 deg rotation - cart. axis [1,0,0]        

 cryst.   s(16) = (     0          1          0      )    f =( -0.2500000 )
                  (     0          1         -1      )       ( -0.2500000 )
                  (    -1          1          0      )       ( -0.2500000 )

 cart.    s(16) = (  1.0000000  0.0000000  0.0000000 )    f =( -0.3535534 )
                  (  0.0000000  0.0000000 -1.0000000 )       ( -0.3535534 )
                  (  0.0000000  1.0000000  0.0000000 )       ( -0.3535534 )


      isym = 17     120 deg rotation - cart. axis [-1,-1,-1]     

 cryst.   s(17) = (     0          1          0      )
                  (     0          0          1      )
                  (     1          0          0      )

 cart.    s(17) = (  0.0000000  1.0000000  0.0000000 )
                  (  0.0000000  0.0000000  1.0000000 )
                  (  1.0000000  0.0000000  0.0000000 )


      isym = 18     120 deg rotation - cart. axis [-1,1,1]       

 cryst.   s(18) = (     0         -1          0      )
                  (     1         -1          0      )
                  (     0         -1          1      )

 cart.    s(18) = (  0.0000000 -1.0000000  0.0000000 )
                  (  0.0000000  0.0000000  1.0000000 )
                  ( -1.0000000  0.0000000  0.0000000 )


      isym = 19     120 deg rotation - cart. axis [1,1,-1]       

 cryst.   s(19) = (     1          0         -1      )
                  (     0          0         -1      )
                  (     0          1         -1      )

 cart.    s(19) = (  0.0000000  1.0000000  0.0000000 )
                  (  0.0000000  0.0000000 -1.0000000 )
                  ( -1.0000000  0.0000000  0.0000000 )


      isym = 20     120 deg rotation - cart. axis [1,-1,1]       

 cryst.   s(20) = (    -1          0          1      )
                  (    -1          1          0      )
                  (    -1          0          0      )

 cart.    s(20) = (  0.0000000 -1.0000000  0.0000000 )
                  (  0.0000000  0.0000000 -1.0000000 )
                  (  1.0000000  0.0000000  0.0000000 )


      isym = 21     120 deg rotation - cart. axis [1,1,1]        

 cryst.   s(21) = (     0          0          1      )
                  (     1          0          0      )
                  (     0          1          0      )

 cart.    s(21) = (  0.0000000  0.0000000  1.0000000 )
                  (  1.0000000  0.0000000  0.0000000 )
                  (  0.0000000  1.0000000  0.0000000 )


      isym = 22     120 deg rotation - cart. axis [-1,1,-1]      

 cryst.   s(22) = (     0          0         -1      )
                  (     0          1         -1      )
                  (     1          0         -1      )

 cart.    s(22) = (  0.0000000  0.0000000  1.0000000 )
                  ( -1.0000000  0.0000000  0.0000000 )
                  (  0.0000000 -1.0000000  0.0000000 )


      isym = 23     120 deg rotation - cart. axis [1,-1,-1]      

 cryst.   s(23) = (    -1          1          0      )
                  (    -1          0          0      )
                  (    -1          0          1      )

 cart.    s(23) = (  0.0000000  0.0000000 -1.0000000 )
                  ( -1.0000000  0.0000000  0.0000000 )
                  (  0.0000000  1.0000000  0.0000000 )


      isym = 24     120 deg rotation - cart. axis [-1,-1,1]      

 cryst.   s(24) = (     1         -1          0      )
                  (     0         -1          1      )
                  (     0         -1          0      )

 cart.    s(24) = (  0.0000000  0.0000000 -1.0000000 )
                  (  1.0000000  0.0000000  0.0000000 )
                  (  0.0000000 -1.0000000  0.0000000 )


      isym = 25     inversion                                    

 cryst.   s(25) = (    -1          0          0      )    f =( -0.2500000 )
                  (     0         -1          0      )       ( -0.2500000 )
                  (     0          0         -1      )       ( -0.2500000 )

 cart.    s(25) = ( -1.0000000  0.0000000  0.0000000 )    f =( -0.3535534 )
                  (  0.0000000 -1.0000000  0.0000000 )       ( -0.3535534 )
                  (  0.0000000  0.0000000 -1.0000000 )       ( -0.3535534 )


      isym = 26     inv. 180 deg rotation - cart. axis [0,0,1]   

 cryst.   s(26) = (     1          0          0      )    f =( -0.2500000 )
                  (     1          0         -1      )       ( -0.2500000 )
                  (     1         -1          0      )       ( -0.2500000 )

 cart.    s(26) = (  1.0000000  0.0000000  0.0000000 )    f =( -0.3535534 )
                  (  0.0000000  1.0000000  0.0000000 )       ( -0.3535534 )
                  (  0.0000000  0.0000000 -1.0000000 )       ( -0.3535534 )


      isym = 27     inv. 180 deg rotation - cart. axis [0,1,0]   

 cryst.   s(27) = (     0          1         -1      )    f =( -0.2500000 )
                  (     0          1          0      )       ( -0.2500000 )
                  (    -1          1          0      )       ( -0.2500000 )

 cart.    s(27) = (  1.0000000  0.0000000  0.0000000 )    f =( -0.3535534 )
                  (  0.0000000 -1.0000000  0.0000000 )       ( -0.3535534 )
                  (  0.0000000  0.0000000  1.0000000 )       ( -0.3535534 )


      isym = 28     inv. 180 deg rotation - cart. axis [1,0,0]   

 cryst.   s(28) = (     0         -1          1      )    f =( -0.2500000 )
                  (    -1          0          1      )       ( -0.2500000 )
                  (     0          0          1      )       ( -0.2500000 )

 cart.    s(28) = ( -1.0000000  0.0000000  0.0000000 )    f =( -0.3535534 )
                  (  0.0000000  1.0000000  0.0000000 )       ( -0.3535534 )
                  (  0.0000000  0.0000000  1.0000000 )       ( -0.3535534 )


      isym = 29     inv. 180 deg rotation - cart. axis [1,1,0]   

 cryst.   s(29) = (    -1          0          0      )
                  (    -1          1          0      )
                  (    -1          0          1      )

 cart.    s(29) = (  0.0000000 -1.0000000  0.0000000 )
                  ( -1.0000000  0.0000000  0.0000000 )
                  (  0.0000000  0.0000000  1.0000000 )


      isym = 30     inv. 180 deg rotation - cart. axis [1,-1,0]  

 cryst.   s(30) = (     1          0          0      )
                  (     0          0          1      )
                  (     0          1          0      )

 cart.    s(30) = (  0.0000000  1.0000000  0.0000000 )
                  (  1.0000000  0.0000000  0.0000000 )
                  (  0.0000000  0.0000000  1.0000000 )


      isym = 31     inv.  90 deg rotation - cart. axis [0,0,-1]  

 cryst.   s(31) = (     0         -1          1      )
                  (     1         -1          0      )
                  (     0         -1          0      )

 cart.    s(31) = (  0.0000000 -1.0000000  0.0000000 )
                  (  1.0000000  0.0000000  0.0000000 )
                  (  0.0000000  0.0000000 -1.0000000 )


      isym = 32     inv.  90 deg rotation - cart. axis [0,0,1]   

 cryst.   s(32) = (     0          1         -1      )
                  (     0          0         -1      )
                  (     1          0         -1      )

 cart.    s(32) = (  0.0000000  1.0000000  0.0000000 )
                  ( -1.0000000  0.0000000  0.0000000 )
                  (  0.0000000  0.0000000 -1.0000000 )


      isym = 33     inv. 180 deg rotation - cart. axis [1,0,1]   

 cryst.   s(33) = (     1         -1          0      )
                  (     0         -1          0      )
                  (     0         -1          1      )

 cart.    s(33) = (  0.0000000  0.0000000 -1.0000000 )
                  (  0.0000000  1.0000000  0.0000000 )
                  ( -1.0000000  0.0000000  0.0000000 )


      isym = 34     inv. 180 deg rotation - cart. axis [-1,0,1]  

 cryst.   s(34) = (     0          0          1      )
                  (     0          1          0      )
                  (     1          0          0      )

 cart.    s(34) = (  0.0000000  0.0000000  1.0000000 )
                  (  0.0000000  1.0000000  0.0000000 )
                  (  1.0000000  0.0000000  0.0000000 )


      isym = 35     inv.  90 deg rotation - cart. axis [0,1,0]   

 cryst.   s(35) = (    -1          1          0      )
                  (    -1          0          1      )
                  (    -1          0          0      )

 cart.    s(35) = (  0.0000000  0.0000000 -1.0000000 )
                  (  0.0000000 -1.0000000  0.0000000 )
                  (  1.0000000  0.0000000  0.0000000 )


      isym = 36     inv.  90 deg rotation - cart. axis [0,-1,0]  

 cryst.   s(36) = (     0          0         -1      )
                  (     1          0         -1      )
                  (     0          1         -1      )

 cart.    s(36) = (  0.0000000  0.0000000  1.0000000 )
                  (  0.0000000 -1.0000000  0.0000000 )
                  ( -1.0000000  0.0000000  0.0000000 )


      isym = 37     inv. 180 deg rotation - cart. axis [0,1,1]   

 cryst.   s(37) = (     1          0         -1      )
                  (     0          1         -1      )
                  (     0          0         -1      )

 cart.    s(37) = (  1.0000000  0.0000000  0.0000000 )
                  (  0.0000000  0.0000000 -1.0000000 )
                  (  0.0000000 -1.0000000  0.0000000 )


      isym = 38     inv. 180 deg rotation - cart. axis [0,1,-1]  

 cryst.   s(38) = (     0          1          0      )
                  (     1          0          0      )
                  (     0          0          1      )

 cart.    s(38) = (  1.0000000  0.0000000  0.0000000 )
                  (  0.0000000  0.0000000  1.0000000 )
                  (  0.0000000  1.0000000  0.0000000 )


      isym = 39     inv.  90 deg rotation - cart. axis [-1,0,0]  

 cryst.   s(39) = (    -1          0          1      )
                  (    -1          0          0      )
                  (    -1          1          0      )

 cart.    s(39) = ( -1.0000000  0.0000000  0.0000000 )
                  (  0.0000000  0.0000000 -1.0000000 )
                  (  0.0000000  1.0000000  0.0000000 )


      isym = 40     inv.  90 deg rotation - cart. axis [1,0,0]   

 cryst.   s(40) = (     0         -1          0      )
                  (     0         -1          1      )
                  (     1         -1          0      )

 cart.    s(40) = ( -1.0000000  0.0000000  0.0000000 )
                  (  0.0000000  0.0000000  1.0000000 )
                  (  0.0000000 -1.0000000  0.0000000 )


      isym = 41     inv. 120 deg rotation - cart. axis [-1,-1,-1]

 cryst.   s(41) = (     0         -1          0      )    f =( -0.2500000 )
                  (     0          0         -1      )       ( -0.2500000 )
                  (    -1          0          0      )       ( -0.2500000 )

 cart.    s(41) = (  0.0000000 -1.0000000  0.0000000 )    f =( -0.3535534 )
                  (  0.0000000  0.0000000 -1.0000000 )       ( -0.3535534 )
                  ( -1.0000000  0.0000000  0.0000000 )       ( -0.3535534 )


      isym = 42     inv. 120 deg rotation - cart. axis [-1,1,1]  

 cryst.   s(42) = (     0          1          0      )    f =( -0.2500000 )
                  (    -1          1          0      )       ( -0.2500000 )
                  (     0          1         -1      )       ( -0.2500000 )

 cart.    s(42) = (  0.0000000  1.0000000  0.0000000 )    f =( -0.3535534 )
                  (  0.0000000  0.0000000 -1.0000000 )       ( -0.3535534 )
                  (  1.0000000  0.0000000  0.0000000 )       ( -0.3535534 )


      isym = 43     inv. 120 deg rotation - cart. axis [1,1,-1]  

 cryst.   s(43) = (    -1          0          1      )    f =( -0.2500000 )
                  (     0          0          1      )       ( -0.2500000 )
                  (     0         -1          1      )       ( -0.2500000 )

 cart.    s(43) = (  0.0000000 -1.0000000  0.0000000 )    f =( -0.3535534 )
                  (  0.0000000  0.0000000  1.0000000 )       ( -0.3535534 )
                  (  1.0000000  0.0000000  0.0000000 )       ( -0.3535534 )


      isym = 44     inv. 120 deg rotation - cart. axis [1,-1,1]  

 cryst.   s(44) = (     1          0         -1      )    f =( -0.2500000 )
                  (     1         -1          0      )       ( -0.2500000 )
                  (     1          0          0      )       ( -0.2500000 )

 cart.    s(44) = (  0.0000000  1.0000000  0.0000000 )    f =( -0.3535534 )
                  (  0.0000000  0.0000000  1.0000000 )       ( -0.3535534 )
                  ( -1.0000000  0.0000000  0.0000000 )       ( -0.3535534 )


      isym = 45     inv. 120 deg rotation - cart. axis [1,1,1]   

 cryst.   s(45) = (     0          0         -1      )    f =( -0.2500000 )
                  (    -1          0          0      )       ( -0.2500000 )
                  (     0         -1          0      )       ( -0.2500000 )

 cart.    s(45) = (  0.0000000  0.0000000 -1.0000000 )    f =( -0.3535534 )
                  ( -1.0000000  0.0000000  0.0000000 )       ( -0.3535534 )
                  (  0.0000000 -1.0000000  0.0000000 )       ( -0.3535534 )


      isym = 46     inv. 120 deg rotation - cart. axis [-1,1,-1] 

 cryst.   s(46) = (     0          0          1      )    f =( -0.2500000 )
                  (     0         -1          1      )       ( -0.2500000 )
                  (    -1          0          1      )       ( -0.2500000 )

 cart.    s(46) = (  0.0000000  0.0000000 -1.0000000 )    f =( -0.3535534 )
                  (  1.0000000  0.0000000  0.0000000 )       ( -0.3535534 )
                  (  0.0000000  1.0000000  0.0000000 )       ( -0.3535534 )


      isym = 47     inv. 120 deg rotation - cart. axis [1,-1,-1] 

 cryst.   s(47) = (     1         -1          0      )    f =( -0.2500000 )
                  (     1          0          0      )       ( -0.2500000 )
                  (     1          0         -1      )       ( -0.2500000 )

 cart.    s(47) = (  0.0000000  0.0000000  1.0000000 )    f =( -0.3535534 )
                  (  1.0000000  0.0000000  0.0000000 )       ( -0.3535534 )
                  (  0.0000000 -1.0000000  0.0000000 )       ( -0.3535534 )


      isym = 48     inv. 120 deg rotation - cart. axis [-1,-1,1] 

 cryst.   s(48) = (    -1          1          0      )    f =( -0.2500000 )
                  (     0          1         -1      )       ( -0.2500000 )
                  (     0          1          0      )       ( -0.2500000 )

 cart.    s(48) = (  0.0000000  0.0000000  1.0000000 )    f =( -0.3535534 )
                  ( -1.0000000  0.0000000  0.0000000 )       ( -0.3535534 )
                  (  0.0000000  1.0000000  0.0000000 )       ( -0.3535534 )


   Cartesian axes

     site n.     atom                  positions (alat units)
         1        Si     tau(   1) = (   0.0000000   0.0000000   0.0000000  )
         2        Si     tau(   2) = (   0.3535534   0.3535534   0.3535534  )

   Crystallographic axes

     site n.     atom                  positions (cryst. coord.)
         1        Si     tau(   1) = (  0.0000000  0.0000000  0.0000000  )
         2        Si     tau(   2) = (  0.2500000  0.2500000  0.2500000  )

     number of k points=   104
                       cart. coord. in units 2pi/alat
        k(    1) = (   0.0000000   0.0000000   0.0000000), wk =   0.0007289
        k(    2) = (  -0.0505076   0.0505076   0.0505076), wk =   0.0058309
        k(    3) = (  -0.1010153   0.1010153   0.1010153), wk =   0.0058309
        k(    4) = (  -0.1515229   0.1515229   0.1515229), wk =   0.0058309
        k(    5) = (  -0.2020305   0.2020305   0.2020305), wk =   0.0058309
        k(    6) = (  -0.2525381   0.2525381   0.2525381), wk =   0.0058309
        k(    7) = (  -0.3030458   0.3030458   0.3030458), wk =   0.0058309
        k(    8) = (   0.3535534  -0.3535534  -0.3535534), wk =   0.0029155
        k(    9) = (   0.0000000   0.0000000   0.1010153), wk =   0.0043732
        k(   10) = (  -0.0505076   0.0505076   0.1515229), wk =   0.0174927
        k(   11) = (  -0.1010153   0.1010153   0.2020305), wk =   0.0174927
        k(   12) = (  -0.1515229   0.1515229   0.2525381), wk =   0.0174927
        k(   13) = (  -0.2020305   0.2020305   0.3030458), wk =   0.0174927
        k(   14) = (  -0.2525381   0.2525381   0.3535534), wk =   0.0174927
        k(   15) = (   0.4040610  -0.4040610  -0.3030458), wk =   0.0174927
        k(   16) = (   0.3535534  -0.3535534  -0.2525381), wk =   0.0174927
        k(   17) = (   0.3030458  -0.3030458  -0.2020305), wk =   0.0174927
        k(   18) = (   0.2525381  -0.2525381  -0.1515229), wk =   0.0174927
        k(   19) = (   0.2020305  -0.2020305  -0.1010153), wk =   0.0174927
        k(   20) = (   0.1515229  -0.1515229  -0.0505076), wk =   0.0174927
        k(   21) = (   0.1010153  -0.1010153   0.0000000), wk =   0.0087464
        k(   22) = (   0.0000000   0.0000000   0.2020305), wk =   0.0043732
        k(   23) = (  -0.0505076   0.0505076   0.2525381), wk =   0.0174927
        k(   24) = (  -0.1010153   0.1010153   0.3030458), wk =   0.0174927
        k(   25) = (  -0.1515229   0.1515229   0.3535534), wk =   0.0174927
        k(   26) = (  -0.2020305   0.2020305   0.4040610), wk =   0.0174927
        k(   27) = (   0.4545686  -0.4545686  -0.2525381), wk =   0.0174927
        k(   28) = (   0.4040610  -0.4040610  -0.2020305), wk =   0.0174927
        k(   29) = (   0.3535534  -0.3535534  -0.1515229), wk =   0.0174927
        k(   30) = (   0.3030458  -0.3030458  -0.1010153), wk =   0.0174927
        k(   31) = (   0.2525381  -0.2525381  -0.0505076), wk =   0.0174927
        k(   32) = (   0.2020305  -0.2020305  -0.0000000), wk =   0.0087464
        k(   33) = (   0.0000000   0.0000000   0.3030458), wk =   0.0043732
        k(   34) = (  -0.0505076   0.0505076   0.3535534), wk =   0.0174927
        k(   35) = (  -0.1010153   0.1010153   0.4040610), wk =   0.0174927
        k(   36) = (  -0.1515229   0.1515229   0.4545686), wk =   0.0174927
        k(   37) = (   0.5050763  -0.5050763  -0.2020305), wk =   0.0174927
        k(   38) = (   0.4545686  -0.4545686  -0.1515229), wk =   0.0174927
        k(   39) = (   0.4040610  -0.4040610  -0.1010153), wk =   0.0174927
        k(   40) = (   0.3535534  -0.3535534  -0.0505076), wk =   0.0174927
        k(   41) = (   0.3030458  -0.3030458   0.0000000), wk =   0.0087464
        k(   42) = (   0.0000000   0.0000000   0.4040610), wk =   0.0043732
        k(   43) = (  -0.0505076   0.0505076   0.4545686), wk =   0.0174927
        k(   44) = (  -0.1010153   0.1010153   0.5050763), wk =   0.0174927
        k(   45) = (   0.5555839  -0.5555839  -0.1515229), wk =   0.0174927
        k(   46) = (   0.5050763  -0.5050763  -0.1010153), wk =   0.0174927
        k(   47) = (   0.4545686  -0.4545686  -0.0505076), wk =   0.0174927
        k(   48) = (   0.4040610  -0.4040610   0.0000000), wk =   0.0087464
        k(   49) = (   0.0000000   0.0000000   0.5050763), wk =   0.0043732
        k(   50) = (  -0.0505076   0.0505076   0.5555839), wk =   0.0174927
        k(   51) = (   0.6060915  -0.6060915  -0.1010153), wk =   0.0174927
        k(   52) = (   0.5555839  -0.5555839  -0.0505076), wk =   0.0174927
        k(   53) = (   0.5050763  -0.5050763   0.0000000), wk =   0.0087464
        k(   54) = (   0.0000000   0.0000000   0.6060915), wk =   0.0043732
        k(   55) = (   0.6565992  -0.6565992  -0.0505076), wk =   0.0174927
        k(   56) = (   0.6060915  -0.6060915   0.0000000), wk =   0.0087464
        k(   57) = (   0.0000000   0.0000000  -0.7071068), wk =   0.0021866
        k(   58) = (   0.0000000   0.1010153   0.2020305), wk =   0.0174927
        k(   59) = (  -0.0505076   0.1515229   0.2525381), wk =   0.0349854
        k(   60) = (  -0.1010153   0.2020305   0.3030458), wk =   0.0349854
        k(   61) = (  -0.1515229   0.2525381   0.3535534), wk =   0.0349854
        k(   62) = (   0.5050763  -0.4040610  -0.3030458), wk =   0.0349854
        k(   63) = (   0.4545686  -0.3535534  -0.2525381), wk =   0.0174927
        k(   64) = (   0.0000000   0.1010153   0.3030458), wk =   0.0174927
        k(   65) = (  -0.0505076   0.1515229   0.3535534), wk =   0.0349854
        k(   66) = (  -0.1010153   0.2020305   0.4040610), wk =   0.0349854
        k(   67) = (   0.5555839  -0.4545686  -0.2525381), wk =   0.0349854
        k(   68) = (   0.5050763  -0.4040610  -0.2020305), wk =   0.0349854
        k(   69) = (   0.4545686  -0.3535534  -0.1515229), wk =   0.0349854
        k(   70) = (   0.4040610  -0.3030458  -0.1010153), wk =   0.0349854
        k(   71) = (   0.3535534  -0.2525381  -0.0505076), wk =   0.0349854
        k(   72) = (   0.3030458  -0.2020305  -0.0000000), wk =   0.0174927
        k(   73) = (   0.0000000   0.1010153   0.4040610), wk =   0.0174927
        k(   74) = (  -0.0505076   0.1515229   0.4545686), wk =   0.0349854
        k(   75) = (   0.6060915  -0.5050763  -0.2020305), wk =   0.0349854
        k(   76) = (   0.5555839  -0.4545686  -0.1515229), wk =   0.0349854
        k(   77) = (   0.5050763  -0.4040610  -0.1010153), wk =   0.0349854
        k(   78) = (   0.4545686  -0.3535534  -0.0505076), wk =   0.0349854
        k(   79) = (   0.4040610  -0.3030458   0.0000000), wk =   0.0174927
        k(   80) = (   0.0000000   0.1010153   0.5050763), wk =   0.0174927
        k(   81) = (   0.6565992  -0.5555839  -0.1515229), wk =   0.0349854
        k(   82) = (   0.6060915  -0.5050763  -0.1010153), wk =   0.0349854
        k(   83) = (   0.5555839  -0.4545686  -0.0505076), wk =   0.0349854
        k(   84) = (   0.5050763  -0.4040610   0.0000000), wk =   0.0174927
        k(   85) = (   0.7071068  -0.6060915  -0.1010153), wk =   0.0174927
        k(   86) = (   0.6565992  -0.5555839  -0.0505076), wk =   0.0349854
        k(   87) = (   0.6060915  -0.5050763   0.0000000), wk =   0.0174927
        k(   88) = (   0.0000000   0.1010153  -0.7071068), wk =   0.0087464
        k(   89) = (   0.0000000   0.2020305   0.4040610), wk =   0.0174927
        k(   90) = (   0.6565992  -0.4545686  -0.2525381), wk =   0.0349854
        k(   91) = (   0.6060915  -0.4040610  -0.2020305), wk =   0.0349854
        k(   92) = (   0.5555839  -0.3535534  -0.1515229), wk =   0.0174927
        k(   93) = (   0.7071068  -0.5050763  -0.2020305), wk =   0.0174927
        k(   94) = (   0.6565992  -0.4545686  -0.1515229), wk =   0.0349854
        k(   95) = (   0.6060915  -0.4040610  -0.1010153), wk =   0.0349854
        k(   96) = (   0.5555839  -0.3535534  -0.0505076), wk =   0.0349854
        k(   97) = (   0.5050763  -0.3030458   0.0000000), wk =   0.0174927
        k(   98) = (   0.7071068  -0.5050763  -0.1010153), wk =   0.0174927
        k(   99) = (   0.6565992  -0.4545686  -0.0505076), wk =   0.0349854
        k(  100) = (   0.6060915  -0.4040610   0.0000000), wk =   0.0174927
        k(  101) = (  -0.0000000   0.2020305  -0.7071068), wk =   0.0087464
        k(  102) = (   0.7071068  -0.4040610  -0.1010153), wk =   0.0174927
        k(  103) = (   0.6565992  -0.3535534  -0.0505076), wk =   0.0174927
        k(  104) = (   0.0000000   0.3030458  -0.7071068), wk =   0.0087464

                       cryst. coord.
        k(    1) = (   0.0000000   0.0000000   0.0000000), wk =   0.0007289
        k(    2) = (   0.0000000   0.0000000   0.0714286), wk =   0.0058309
        k(    3) = (   0.0000000   0.0000000   0.1428571), wk =   0.0058309
        k(    4) = (   0.0000000   0.0000000   0.2142857), wk =   0.0058309
        k(    5) = (   0.0000000   0.0000000   0.2857143), wk =   0.0058309
        k(    6) = (   0.0000000   0.0000000   0.3571429), wk =   0.0058309
        k(    7) = (   0.0000000   0.0000000   0.4285714), wk =   0.0058309
        k(    8) = (   0.0000000   0.0000000  -0.5000000), wk =   0.0029155
        k(    9) = (   0.0000000   0.0714286   0.0714286), wk =   0.0043732
        k(   10) = (   0.0000000   0.0714286   0.1428571), wk =   0.0174927
        k(   11) = (   0.0000000   0.0714286   0.2142857), wk =   0.0174927
        k(   12) = (   0.0000000   0.0714286   0.2857143), wk =   0.0174927
        k(   13) = (   0.0000000   0.0714286   0.3571429), wk =   0.0174927
        k(   14) = (   0.0000000   0.0714286   0.4285714), wk =   0.0174927
        k(   15) = (   0.0000000   0.0714286  -0.5000000), wk =   0.0174927
        k(   16) = (   0.0000000   0.0714286  -0.4285714), wk =   0.0174927
        k(   17) = (   0.0000000   0.0714286  -0.3571429), wk =   0.0174927
        k(   18) = (   0.0000000   0.0714286  -0.2857143), wk =   0.0174927
        k(   19) = (   0.0000000   0.0714286  -0.2142857), wk =   0.0174927
        k(   20) = (   0.0000000   0.0714286  -0.1428571), wk =   0.0174927
        k(   21) = (   0.0000000   0.0714286  -0.0714286), wk =   0.0087464
        k(   22) = (   0.0000000   0.1428571   0.1428571), wk =   0.0043732
        k(   23) = (   0.0000000   0.1428571   0.2142857), wk =   0.0174927
        k(   24) = (   0.0000000   0.1428571   0.2857143), wk =   0.0174927
        k(   25) = (   0.0000000   0.1428571   0.3571429), wk =   0.0174927
        k(   26) = (   0.0000000   0.1428571   0.4285714), wk =   0.0174927
        k(   27) = (   0.0000000   0.1428571  -0.5000000), wk =   0.0174927
        k(   28) = (   0.0000000   0.1428571  -0.4285714), wk =   0.0174927
        k(   29) = (   0.0000000   0.1428571  -0.3571429), wk =   0.0174927
        k(   30) = (   0.0000000   0.1428571  -0.2857143), wk =   0.0174927
        k(   31) = (   0.0000000   0.1428571  -0.2142857), wk =   0.0174927
        k(   32) = (   0.0000000   0.1428571  -0.1428571), wk =   0.0087464
        k(   33) = (   0.0000000   0.2142857   0.2142857), wk =   0.0043732
        k(   34) = (   0.0000000   0.2142857   0.2857143), wk =   0.0174927
        k(   35) = (   0.0000000   0.2142857   0.3571429), wk =   0.0174927
        k(   36) = (   0.0000000   0.2142857   0.4285714), wk =   0.0174927
        k(   37) = (   0.0000000   0.2142857  -0.5000000), wk =   0.0174927
        k(   38) = (   0.0000000   0.2142857  -0.4285714), wk =   0.0174927
        k(   39) = (   0.0000000   0.2142857  -0.3571429), wk =   0.0174927
        k(   40) = (   0.0000000   0.2142857  -0.2857143), wk =   0.0174927
        k(   41) = (   0.0000000   0.2142857  -0.2142857), wk =   0.0087464
        k(   42) = (   0.0000000   0.2857143   0.2857143), wk =   0.0043732
        k(   43) = (   0.0000000   0.2857143   0.3571429), wk =   0.0174927
        k(   44) = (   0.0000000   0.2857143   0.4285714), wk =   0.0174927
        k(   45) = (   0.0000000   0.2857143  -0.5000000), wk =   0.0174927
        k(   46) = (   0.0000000   0.2857143  -0.4285714), wk =   0.0174927
        k(   47) = (   0.0000000   0.2857143  -0.3571429), wk =   0.0174927
        k(   48) = (   0.0000000   0.2857143  -0.2857143), wk =   0.0087464
        k(   49) = (   0.0000000   0.3571429   0.3571429), wk =   0.0043732
        k(   50) = (   0.0000000   0.3571429   0.4285714), wk =   0.0174927
        k(   51) = (   0.0000000   0.3571429  -0.5000000), wk =   0.0174927
        k(   52) = (   0.0000000   0.3571429  -0.4285714), wk =   0.0174927
        k(   53) = (   0.0000000   0.3571429  -0.3571429), wk =   0.0087464
        k(   54) = (   0.0000000   0.4285714   0.4285714), wk =   0.0043732
        k(   55) = (   0.0000000   0.4285714  -0.5000000), wk =   0.0174927
        k(   56) = (   0.0000000   0.4285714  -0.4285714), wk =   0.0087464
        k(   57) = (   0.0000000  -0.5000000  -0.5000000), wk =   0.0021866
        k(   58) = (   0.0714286   0.1428571   0.2142857), wk =   0.0174927
        k(   59) = (   0.0714286   0.1428571   0.2857143), wk =   0.0349854
        k(   60) = (   0.0714286   0.1428571   0.3571429), wk =   0.0349854
        k(   61) = (   0.0714286   0.1428571   0.4285714), wk =   0.0349854
        k(   62) = (   0.0714286   0.1428571  -0.5000000), wk =   0.0349854
        k(   63) = (   0.0714286   0.1428571  -0.4285714), wk =   0.0174927
        k(   64) = (   0.0714286   0.2142857   0.2857143), wk =   0.0174927
        k(   65) = (   0.0714286   0.2142857   0.3571429), wk =   0.0349854
        k(   66) = (   0.0714286   0.2142857   0.4285714), wk =   0.0349854
        k(   67) = (   0.0714286   0.2142857  -0.5000000), wk =   0.0349854
        k(   68) = (   0.0714286   0.2142857  -0.4285714), wk =   0.0349854
        k(   69) = (   0.0714286   0.2142857  -0.3571429), wk =   0.0349854
        k(   70) = (   0.0714286   0.2142857  -0.2857143), wk =   0.0349854
        k(   71) = (   0.0714286   0.2142857  -0.2142857), wk =   0.0349854
        k(   72) = (   0.0714286   0.2142857  -0.1428571), wk =   0.0174927
        k(   73) = (   0.0714286   0.2857143   0.3571429), wk =   0.0174927
        k(   74) = (   0.0714286   0.2857143   0.4285714), wk =   0.0349854
        k(   75) = (   0.0714286   0.2857143  -0.5000000), wk =   0.0349854
        k(   76) = (   0.0714286   0.2857143  -0.4285714), wk =   0.0349854
        k(   77) = (   0.0714286   0.2857143  -0.3571429), wk =   0.0349854
        k(   78) = (   0.0714286   0.2857143  -0.2857143), wk =   0.0349854
        k(   79) = (   0.0714286   0.2857143  -0.2142857), wk =   0.0174927
        k(   80) = (   0.0714286   0.3571429   0.4285714), wk =   0.0174927
        k(   81) = (   0.0714286   0.3571429  -0.5000000), wk =   0.0349854
        k(   82) = (   0.0714286   0.3571429  -0.4285714), wk =   0.0349854
        k(   83) = (   0.0714286   0.3571429  -0.3571429), wk =   0.0349854
        k(   84) = (   0.0714286   0.3571429  -0.2857143), wk =   0.0174927
        k(   85) = (   0.0714286   0.4285714  -0.5000000), wk =   0.0174927
        k(   86) = (   0.0714286   0.4285714  -0.4285714), wk =   0.0349854
        k(   87) = (   0.0714286   0.4285714  -0.3571429), wk =   0.0174927
        k(   88) = (   0.0714286  -0.5000000  -0.4285714), wk =   0.0087464
        k(   89) = (   0.1428571   0.2857143   0.4285714), wk =   0.0174927
        k(   90) = (   0.1428571   0.2857143  -0.5000000), wk =   0.0349854
        k(   91) = (   0.1428571   0.2857143  -0.4285714), wk =   0.0349854
        k(   92) = (   0.1428571   0.2857143  -0.3571429), wk =   0.0174927
        k(   93) = (   0.1428571   0.3571429  -0.5000000), wk =   0.0174927
        k(   94) = (   0.1428571   0.3571429  -0.4285714), wk =   0.0349854
        k(   95) = (   0.1428571   0.3571429  -0.3571429), wk =   0.0349854
        k(   96) = (   0.1428571   0.3571429  -0.2857143), wk =   0.0349854
        k(   97) = (   0.1428571   0.3571429  -0.2142857), wk =   0.0174927
        k(   98) = (   0.1428571   0.4285714  -0.4285714), wk =   0.0174927
        k(   99) = (   0.1428571   0.4285714  -0.3571429), wk =   0.0349854
        k(  100) = (   0.1428571   0.4285714  -0.2857143), wk =   0.0174927
        k(  101) = (   0.1428571  -0.5000000  -0.3571429), wk =   0.0087464
        k(  102) = (   0.2142857   0.4285714  -0.3571429), wk =   0.0174927
        k(  103) = (   0.2142857   0.4285714  -0.2857143), wk =   0.0174927
        k(  104) = (   0.2142857  -0.5000000  -0.2857143), wk =   0.0087464

     Dense  grid:    16889 G-vectors     FFT dimensions: (  36,  36,  36)

     Smooth grid:     5985 G-vectors     FFT dimensions: (  32,  32,  32)

     Dynamical RAM for                 wfc:       0.05 MB

     Dynamical RAM for     wfc (w. buffer):       4.81 MB

     Dynamical RAM for           str. fact:       0.26 MB

     Dynamical RAM for           local pot:       0.00 MB

     Dynamical RAM for          nlocal pot:       0.41 MB

     Dynamical RAM for                qrad:       1.24 MB

     Dynamical RAM for          rho,v,vnew:       1.84 MB

     Dynamical RAM for               rhoin:       0.61 MB

     Dynamical RAM for            rho*nmix:       4.12 MB

     Dynamical RAM for           G-vectors:       1.01 MB

     Dynamical RAM for          h,s,v(r/c):       0.00 MB

     Dynamical RAM for          <psi|beta>:       0.00 MB

     Dynamical RAM for                 psi:       0.09 MB

     Dynamical RAM for                hpsi:       0.09 MB

     Dynamical RAM for      wfcinit/wfcrot:       0.18 MB

     Estimated static dynamical RAM per process >      12.48 MB

     Estimated max dynamical RAM per process >      16.79 MB

     Initial potential from superposition of free atoms

     starting charge       7.9988, renormalised to       8.0000
     Starting wfcs are    8 randomized atomic wfcs

     total cpu time spent up to now is        0.7 secs

     Self-consistent Calculation

     iteration #  1     ecut=    30.00 Ry     beta= 0.40
     Davidson diagonalization with overlap

---- Real-time Memory Report at c_bands before calling an iterative solver
            43 MiB given to the printing process from OS
             0 MiB allocation reported by mallinfo(arena+hblkhd)
          4503 MiB available memory on the node where the printing process lives
------------------
     ethr =  1.00E-02,  avg # of iterations =  2.0

     Threshold (ethr) on eigenvalues was too large:
     Diagonalizing with lowered threshold

     Davidson diagonalization with overlap

---- Real-time Memory Report at c_bands before calling an iterative solver
            44 MiB given to the printing process from OS
             0 MiB allocation reported by mallinfo(arena+hblkhd)
          4501 MiB available memory on the node where the printing process lives
------------------
     ethr =  5.70E-04,  avg # of iterations =  2.0

     total cpu time spent up to now is        1.6 secs

     total energy              =     -16.92648124 Ry
     estimated scf accuracy    <       0.05375623 Ry

     iteration #  2     ecut=    30.00 Ry     beta= 0.40
     Davidson diagonalization with overlap

---- Real-time Memory Report at c_bands before calling an iterative solver
            50 MiB given to the printing process from OS
             0 MiB allocation reported by mallinfo(arena+hblkhd)
          4498 MiB available memory on the node where the printing process lives
------------------
     ethr =  6.72E-04,  avg # of iterations =  1.0

     total cpu time spent up to now is        2.0 secs

     total energy              =     -16.92319466 Ry
     estimated scf accuracy    <       0.01706277 Ry

     iteration #  3     ecut=    30.00 Ry     beta= 0.40
     Davidson diagonalization with overlap

---- Real-time Memory Report at c_bands before calling an iterative solver
            50 MiB given to the printing process from OS
             0 MiB allocation reported by mallinfo(arena+hblkhd)
          4498 MiB available memory on the node where the printing process lives
------------------
     ethr =  2.13E-04,  avg # of iterations =  1.2

     total cpu time spent up to now is        2.3 secs

     total energy              =     -16.92443306 Ry
     estimated scf accuracy    <       0.00025511 Ry

     iteration #  4     ecut=    30.00 Ry     beta= 0.40
     Davidson diagonalization with overlap

---- Real-time Memory Report at c_bands before calling an iterative solver
            51 MiB given to the printing process from OS
             0 MiB allocation reported by mallinfo(arena+hblkhd)
          4498 MiB available memory on the node where the printing process lives
------------------
     ethr =  3.19E-06,  avg # of iterations =  4.2

     total cpu time spent up to now is        2.9 secs

     total energy              =     -16.92464297 Ry
     estimated scf accuracy    <       0.00010672 Ry

     iteration #  5     ecut=    30.00 Ry     beta= 0.40
     Davidson diagonalization with overlap

---- Real-time Memory Report at c_bands before calling an iterative solver
            51 MiB given to the printing process from OS
             0 MiB allocation reported by mallinfo(arena+hblkhd)
          4498 MiB available memory on the node where the printing process lives
------------------
     ethr =  1.33E-06,  avg # of iterations =  2.0

     total cpu time spent up to now is        3.3 secs

     total energy              =     -16.92465478 Ry
     estimated scf accuracy    <       0.00000004 Ry

     iteration #  6     ecut=    30.00 Ry     beta= 0.40
     Davidson diagonalization with overlap

---- Real-time Memory Report at c_bands before calling an iterative solver
            51 MiB given to the printing process from OS
             0 MiB allocation reported by mallinfo(arena+hblkhd)
          4498 MiB available memory on the node where the printing process lives
------------------
     ethr =  5.61E-10,  avg # of iterations = 10.5

     total cpu time spent up to now is        4.5 secs

     total energy              =     -16.92466004 Ry
     estimated scf accuracy    <       0.00000033 Ry

     iteration #  7     ecut=    30.00 Ry     beta= 0.40
     Davidson diagonalization with overlap

---- Real-time Memory Report at c_bands before calling an iterative solver
            51 MiB given to the printing process from OS
             0 MiB allocation reported by mallinfo(arena+hblkhd)
          4493 MiB available memory on the node where the printing process lives
------------------
     ethr =  5.61E-10,  avg # of iterations =  5.5

     total cpu time spent up to now is        5.3 secs

     total energy              =     -16.92465674 Ry
     estimated scf accuracy    <       0.00001015 Ry

     iteration #  8     ecut=    30.00 Ry     beta= 0.40
     Davidson diagonalization with overlap

---- Real-time Memory Report at c_bands before calling an iterative solver
            51 MiB given to the printing process from OS
             0 MiB allocation reported by mallinfo(arena+hblkhd)
          4492 MiB available memory on the node where the printing process lives
------------------
     ethr =  5.61E-10,  avg # of iterations =  5.8

     total cpu time spent up to now is        6.1 secs

     total energy              =     -16.92465764 Ry
     estimated scf accuracy    <          7.8E-09 Ry

     iteration #  9     ecut=    30.00 Ry     beta= 0.40
     Davidson diagonalization with overlap

---- Real-time Memory Report at c_bands before calling an iterative solver
            51 MiB given to the printing process from OS
             0 MiB allocation reported by mallinfo(arena+hblkhd)
          4492 MiB available memory on the node where the printing process lives
------------------
     ethr =  9.70E-11,  avg # of iterations =  2.7

     total cpu time spent up to now is        6.6 secs

     total energy              =     -16.92465764 Ry
     estimated scf accuracy    <       0.00000002 Ry

     iteration # 10     ecut=    30.00 Ry     beta= 0.40
     Davidson diagonalization with overlap

---- Real-time Memory Report at c_bands before calling an iterative solver
            52 MiB given to the printing process from OS
             0 MiB allocation reported by mallinfo(arena+hblkhd)
          4492 MiB available memory on the node where the printing process lives
------------------
     ethr =  9.70E-11,  avg # of iterations =  1.2

     total cpu time spent up to now is        7.0 secs

     total energy              =     -16.92465764 Ry
     estimated scf accuracy    <          2.6E-09 Ry

     iteration # 11     ecut=    30.00 Ry     beta= 0.40
     Davidson diagonalization with overlap

---- Real-time Memory Report at c_bands before calling an iterative solver
            52 MiB given to the printing process from OS
             0 MiB allocation reported by mallinfo(arena+hblkhd)
          4492 MiB available memory on the node where the printing process lives
------------------
     ethr =  3.30E-11,  avg # of iterations =  1.5

     total cpu time spent up to now is        7.4 secs

     End of self-consistent calculation

          k = 0.0000 0.0000 0.0000 (   749 PWs)   bands (ev):

    -5.7353   6.2285   6.2285   6.2285

     occupation numbers 
     1.0000   1.0000   1.0000   1.0000

          k =-0.0505 0.0505 0.0505 (   737 PWs)   bands (ev):

    -5.6684   5.5604   6.1198   6.1198

     occupation numbers 
     1.0000   1.0000   1.0000   1.0000

          k =-0.1010 0.1010 0.1010 (   743 PWs)   bands (ev):

    -5.4693   4.2926   5.8702   5.8702

     occupation numbers 
     1.0000   1.0000   1.0000   1.0000

          k =-0.1515 0.1515 0.1515 (   757 PWs)   bands (ev):

    -5.1433   2.9492   5.5937   5.5937

     occupation numbers 
     1.0000   1.0000   1.0000   1.0000

          k =-0.2020 0.2020 0.2020 (   757 PWs)   bands (ev):

    -4.7029   1.6703   5.3530   5.3530

     occupation numbers 
     1.0000   1.0000   1.0000   1.0000

          k =-0.2525 0.2525 0.2525 (   757 PWs)   bands (ev):

    -4.1791   0.5302   5.1732   5.1732

     occupation numbers 
     1.0000   1.0000   1.0000   1.0000

          k =-0.3030 0.3030 0.3030 (   760 PWs)   bands (ev):

    -3.6616  -0.3628   5.0637   5.0637

     occupation numbers 
     1.0000   1.0000   1.0000   1.0000

          k = 0.3536-0.3536-0.3536 (   754 PWs)   bands (ev):

    -3.4058  -0.7446   5.0271   5.0271

     occupation numbers 
     1.0000   1.0000   1.0000   1.0000

          k = 0.0000 0.0000 0.1010 (   741 PWs)   bands (ev):

    -5.6461   5.6939   5.8960   5.8960

     occupation numbers 
     1.0000   1.0000   1.0000   1.0000

          k =-0.0505 0.0505 0.1515 (   749 PWs)   bands (ev):

    -5.4908   4.6695   5.5909   5.7743

     occupation numbers 
     1.0000   1.0000   1.0000   1.0000

          k =-0.1010 0.1010 0.2020 (   749 PWs)   bands (ev):

    -5.2064   3.3764   5.3009   5.5264

     occupation numbers 
     1.0000   1.0000   1.0000   1.0000

          k =-0.1515 0.1515 0.2525 (   757 PWs)   bands (ev):

    -4.8023   2.0921   5.0731   5.2273

     occupation numbers 
     1.0000   1.0000   1.0000   1.0000

          k =-0.2020 0.2020 0.3030 (   760 PWs)   bands (ev):

    -4.3009   0.9108   4.9266   4.9506

     occupation numbers 
     1.0000   1.0000   1.0000   1.0000

          k =-0.2525 0.2525 0.3536 (   756 PWs)   bands (ev):

    -3.7638  -0.0763   4.7284   4.8673

     occupation numbers 
     1.0000   1.0000   1.0000   1.0000

          k = 0.4041-0.4041-0.3030 (   751 PWs)   bands (ev):

    -3.3785  -0.6682   4.5756   4.8940

     occupation numbers 
     1.0000   1.0000   1.0000   1.0000

          k = 0.3536-0.3536-0.2525 (   752 PWs)   bands (ev):

    -3.4695  -0.5353   4.5021   5.0013

     occupation numbers 
     1.0000   1.0000   1.0000   1.0000

          k = 0.3030-0.3030-0.2020 (   758 PWs)   bands (ev):

    -3.9403   0.2247   4.5150   5.1805

     occupation numbers 
     1.0000   1.0000   1.0000   1.0000

          k = 0.2525-0.2525-0.1515 (   756 PWs)   bands (ev):

    -4.4772   1.2903   4.6197   5.4191

     occupation numbers 
     1.0000   1.0000   1.0000   1.0000

          k = 0.2020-0.2020-0.1010 (   755 PWs)   bands (ev):

    -4.9499   2.5114   4.8191   5.6952

     occupation numbers 
     1.0000   1.0000   1.0000   1.0000

          k = 0.1515-0.1515-0.0505 (   752 PWs)   bands (ev):

    -5.3155   3.7950   5.1174   5.9658

     occupation numbers 
     1.0000   1.0000   1.0000   1.0000

          k = 0.1010-0.1010 0.0000 (   741 PWs)   bands (ev):

    -5.5574   4.9482   5.5620   6.1437

     occupation numbers 
     1.0000   1.0000   1.0000   1.0000

          k = 0.0000 0.0000 0.2020 (   753 PWs)   bands (ev):

    -5.3794   4.5930   5.2533   5.2533

     occupation numbers 
     1.0000   1.0000   1.0000   1.0000

          k =-0.0505 0.0505 0.2525 (   756 PWs)   bands (ev):

    -5.1376   3.6413   4.9452   5.0031

     occupation numbers 
     1.0000   1.0000   1.0000   1.0000

          k =-0.1010 0.1010 0.3030 (   752 PWs)   bands (ev):

    -4.7725   2.4656   4.6705   4.7098

     occupation numbers 
     1.0000   1.0000   1.0000   1.0000

          k =-0.1515 0.1515 0.3536 (   751 PWs)   bands (ev):

    -4.3002   1.3077   4.3061   4.5661

     occupation numbers 
     1.0000   1.0000   1.0000   1.0000

          k =-0.2020 0.2020 0.4041 (   748 PWs)   bands (ev):

    -3.7631   0.2781   3.9812   4.5208

     occupation numbers 
     1.0000   1.0000   1.0000   1.0000

          k = 0.4546-0.4546-0.2525 (   748 PWs)   bands (ev):

    -3.2910  -0.4642   3.7285   4.5737

     occupation numbers 
     1.0000   1.0000   1.0000   1.0000

          k = 0.4041-0.4041-0.2020 (   749 PWs)   bands (ev):

    -3.2034  -0.5879   3.5661   4.7192

     occupation numbers 
     1.0000   1.0000   1.0000   1.0000

          k = 0.3536-0.3536-0.1515 (   755 PWs)   bands (ev):

    -3.5943   0.0015   3.5078   4.9460

     occupation numbers 
     1.0000   1.0000   1.0000   1.0000

          k = 0.3030-0.3030-0.1010 (   749 PWs)   bands (ev):

    -4.1319   0.9591   3.5694   5.2346

     occupation numbers 
     1.0000   1.0000   1.0000   1.0000

          k = 0.2525-0.2525-0.0505 (   751 PWs)   bands (ev):

    -4.6313   2.0560   3.7834   5.5504

     occupation numbers 
     1.0000   1.0000   1.0000   1.0000

          k = 0.2020-0.2020-0.0000 (   753 PWs)   bands (ev):

    -5.0331   3.0862   4.2586   5.8296

     occupation numbers 
     1.0000   1.0000   1.0000   1.0000

          k = 0.0000 0.0000 0.3030 (   745 PWs)   bands (ev):

    -4.9383   3.3451   4.6174   4.6174

     occupation numbers 
     1.0000   1.0000   1.0000   1.0000

          k =-0.0505 0.0505 0.3536 (   747 PWs)   bands (ev):

    -4.6135   2.5237   4.2637   4.3634

     occupation numbers 
     1.0000   1.0000   1.0000   1.0000

          k =-0.1010 0.1010 0.4041 (   751 PWs)   bands (ev):

    -4.1749   1.5426   3.7924   4.2043

     occupation numbers 
     1.0000   1.0000   1.0000   1.0000

          k =-0.1515 0.1515 0.4546 (   754 PWs)   bands (ev):

    -3.6516   0.5748   3.3324   4.1490

     occupation numbers 
     1.0000   1.0000   1.0000   1.0000

          k = 0.5051-0.5051-0.2020 (   749 PWs)   bands (ev):

    -3.1308  -0.2274   2.9572   4.1990

     occupation numbers 
     1.0000   1.0000   1.0000   1.0000

          k = 0.4546-0.4546-0.1515 (   753 PWs)   bands (ev):

    -2.8793  -0.5672   2.6971   4.3501

     occupation numbers 
     1.0000   1.0000   1.0000   1.0000

          k = 0.4041-0.4041-0.1010 (   749 PWs)   bands (ev):

    -3.1577  -0.1802   2.5755   4.5919

     occupation numbers 
     1.0000   1.0000   1.0000   1.0000

          k = 0.3536-0.3536-0.0505 (   752 PWs)   bands (ev):

    -3.6811   0.6140   2.6357   4.9041

     occupation numbers 
     1.0000   1.0000   1.0000   1.0000

          k = 0.3030-0.3030 0.0000 (   754 PWs)   bands (ev):

    -4.1991   1.4435   2.9919   5.2478

     occupation numbers 
     1.0000   1.0000   1.0000   1.0000

          k = 0.0000 0.0000 0.4041 (   745 PWs)   bands (ev):

    -4.3285   2.0630   4.0863   4.0863

     occupation numbers 
     1.0000   1.0000   1.0000   1.0000

          k =-0.0505 0.0505 0.4546 (   746 PWs)   bands (ev):

    -3.9259   1.3411   3.6928   3.9035

     occupation numbers 
     1.0000   1.0000   1.0000   1.0000

          k =-0.1010 0.1010 0.5051 (   756 PWs)   bands (ev):

    -3.4256   0.5581   3.1063   3.8261

     occupation numbers 
     1.0000   1.0000   1.0000   1.0000

          k = 0.5556-0.5556-0.1515 (   750 PWs)   bands (ev):

    -2.8850  -0.1718   2.5550   3.8575

     occupation numbers 
     1.0000   1.0000   1.0000   1.0000

          k = 0.5051-0.5051-0.1010 (   750 PWs)   bands (ev):

    -2.5064  -0.6231   2.1518   3.9953

     occupation numbers 
     1.0000   1.0000   1.0000   1.0000

          k = 0.4546-0.4546-0.0505 (   745 PWs)   bands (ev):

    -2.6609  -0.4330   1.9598   4.2308

     occupation numbers 
     1.0000   1.0000   1.0000   1.0000

          k = 0.4041-0.4041 0.0000 (   744 PWs)   bands (ev):

    -3.1576   0.1292   2.0770   4.5459

     occupation numbers 
     1.0000   1.0000   1.0000   1.0000

          k = 0.0000 0.0000 0.5051 (   757 PWs)   bands (ev):

    -3.5585   0.7900   3.6936   3.6936

     occupation numbers 
     1.0000   1.0000   1.0000   1.0000

          k =-0.0505 0.0505 0.5556 (   752 PWs)   bands (ev):

    -3.0862   0.1416   3.3133   3.5886

     occupation numbers 
     1.0000   1.0000   1.0000   1.0000

          k = 0.6061-0.6061-0.1010 (   751 PWs)   bands (ev):

    -2.5455  -0.4844   2.6933   3.5937

     occupation numbers 
     1.0000   1.0000   1.0000   1.0000

          k = 0.5556-0.5556-0.0505 (   744 PWs)   bands (ev):

    -2.0871  -0.9429   2.1356   3.7084

     occupation numbers 
     1.0000   1.0000   1.0000   1.0000

          k = 0.5051-0.5051 0.0000 (   740 PWs)   bands (ev):

    -2.1853  -0.8238   1.8337   3.9258

     occupation numbers 
     1.0000   1.0000   1.0000   1.0000

          k = 0.0000 0.0000 0.6061 (   749 PWs)   bands (ev):

    -2.6410  -0.4400   3.4538   3.4538

     occupation numbers 
     1.0000   1.0000   1.0000   1.0000

          k = 0.6566-0.6566-0.0505 (   751 PWs)   bands (ev):

    -2.1116  -1.0227   3.1245   3.4290

     occupation numbers 
     1.0000   1.0000   1.0000   1.0000

          k = 0.6061-0.6061 0.0000 (   752 PWs)   bands (ev):

    -1.6895  -1.4005   2.5580   3.5155

     occupation numbers 
     1.0000   1.0000   1.0000   1.0000

          k = 0.0000 0.0000-0.7071 (   740 PWs)   bands (ev):

    -1.5935  -1.5935   3.3732   3.3732

     occupation numbers 
     1.0000   1.0000   1.0000   1.0000

          k = 0.0000 0.1010 0.2020 (   756 PWs)   bands (ev):

    -5.2925   3.9717   4.9143   5.6892

     occupation numbers 
     1.0000   1.0000   1.0000   1.0000

          k =-0.0505 0.1515 0.2525 (   757 PWs)   bands (ev):

    -4.9676   2.8788   4.4424   5.4817

     occupation numbers 
     1.0000   1.0000   1.0000   1.0000

          k =-0.1010 0.2020 0.3030 (   756 PWs)   bands (ev):

    -4.5285   1.6929   4.1649   5.2004

     occupation numbers 
     1.0000   1.0000   1.0000   1.0000

          k =-0.1515 0.2525 0.3536 (   757 PWs)   bands (ev):

    -4.0054   0.5946   4.0000   4.9412

     occupation numbers 
     1.0000   1.0000   1.0000   1.0000

          k = 0.5051-0.4041-0.3030 (   755 PWs)   bands (ev):

    -3.4864  -0.2808   3.9174   4.7603

     occupation numbers 
     1.0000   1.0000   1.0000   1.0000

          k = 0.4546-0.3536-0.2525 (   752 PWs)   bands (ev):

    -3.2280  -0.6596   3.8936   4.6949

     occupation numbers 
     1.0000   1.0000   1.0000   1.0000

          k = 0.0000 0.1010 0.3030 (   755 PWs)   bands (ev):

    -4.8547   2.9359   4.2766   4.9192

     occupation numbers 
     1.0000   1.0000   1.0000   1.0000

          k =-0.0505 0.1515 0.3536 (   754 PWs)   bands (ev):

    -4.4527   1.9679   3.8044   4.6887

     occupation numbers 
     1.0000   1.0000   1.0000   1.0000

          k =-0.1010 0.2020 0.4041 (   753 PWs)   bands (ev):

    -3.9530   0.9383   3.4919   4.4462

     occupation numbers 
     1.0000   1.0000   1.0000   1.0000

          k = 0.5556-0.4546-0.2525 (   750 PWs)   bands (ev):

    -3.4147   0.0235   3.2622   4.3038

     occupation numbers 
     1.0000   1.0000   1.0000   1.0000

          k = 0.5051-0.4041-0.2020 (   750 PWs)   bands (ev):

    -3.0253  -0.5413   3.0938   4.3016

     occupation numbers 
     1.0000   1.0000   1.0000   1.0000

          k = 0.4546-0.3536-0.1515 (   750 PWs)   bands (ev):

    -3.1239  -0.4024   3.0017   4.4333

     occupation numbers 
     1.0000   1.0000   1.0000   1.0000

          k = 0.4041-0.3030-0.1010 (   754 PWs)   bands (ev):

    -3.6016   0.3246   3.0159   4.6723

     occupation numbers 
     1.0000   1.0000   1.0000   1.0000

          k = 0.3536-0.2525-0.0505 (   750 PWs)   bands (ev):

    -4.1372   1.2769   3.1848   4.9786

     occupation numbers 
     1.0000   1.0000   1.0000   1.0000

          k = 0.3030-0.2020-0.0000 (   750 PWs)   bands (ev):

    -4.6060   2.2016   3.6203   5.2868

     occupation numbers 
     1.0000   1.0000   1.0000   1.0000

          k = 0.0000 0.1010 0.4041 (   748 PWs)   bands (ev):

    -4.2504   1.8410   3.7514   4.1986

     occupation numbers 
     1.0000   1.0000   1.0000   1.0000

          k =-0.0505 0.1515 0.4546 (   754 PWs)   bands (ev):

    -3.7806   1.0263   3.2585   3.9757

     occupation numbers 
     1.0000   1.0000   1.0000   1.0000

          k = 0.6061-0.5051-0.2020 (   748 PWs)   bands (ev):

    -3.2434   0.2033   2.8208   3.8559

     occupation numbers 
     1.0000   1.0000   1.0000   1.0000

          k = 0.5556-0.4546-0.1515 (   745 PWs)   bands (ev):

    -2.7668  -0.4366   2.4773   3.8816

     occupation numbers 
     1.0000   1.0000   1.0000   1.0000

          k = 0.5051-0.4041-0.1010 (   746 PWs)   bands (ev):

    -2.6967  -0.5184   2.2680   4.0387

     occupation numbers 
     1.0000   1.0000   1.0000   1.0000

          k = 0.4546-0.3536-0.0505 (   750 PWs)   bands (ev):

    -3.1112   0.0196   2.2439   4.3029

     occupation numbers 
     1.0000   1.0000   1.0000   1.0000

          k = 0.4041-0.3030 0.0000 (   754 PWs)   bands (ev):

    -3.6477   0.7200   2.5084   4.6382

     occupation numbers 
     1.0000   1.0000   1.0000   1.0000

          k = 0.0000 0.1010 0.5051 (   753 PWs)   bands (ev):

    -3.4895   0.6965   3.3757   3.6478

     occupation numbers 
     1.0000   1.0000   1.0000   1.0000

          k = 0.6566-0.5556-0.1515 (   746 PWs)   bands (ev):

    -2.9672   0.0246   2.8460   3.4995

     occupation numbers 
     1.0000   1.0000   1.0000   1.0000

          k = 0.6061-0.5051-0.1010 (   743 PWs)   bands (ev):

    -2.4423  -0.5701   2.3073   3.5263

     occupation numbers 
     1.0000   1.0000   1.0000   1.0000

          k = 0.5556-0.4546-0.0505 (   745 PWs)   bands (ev):

    -2.2318  -0.7814   1.9465   3.6852

     occupation numbers 
     1.0000   1.0000   1.0000   1.0000

          k = 0.5051-0.4041 0.0000 (   736 PWs)   bands (ev):

    -2.5886  -0.4146   1.8832   3.9542

     occupation numbers 
     1.0000   1.0000   1.0000   1.0000

          k = 0.7071-0.6061-0.1010 (   749 PWs)   bands (ev):

    -2.5869  -0.4559   3.1673   3.2948

     occupation numbers 
     1.0000   1.0000   1.0000   1.0000

          k = 0.6566-0.5556-0.0505 (   746 PWs)   bands (ev):

    -2.0423  -1.0057   2.6235   3.2729

     occupation numbers 
     1.0000   1.0000   1.0000   1.0000

          k = 0.6061-0.5051 0.0000 (   743 PWs)   bands (ev):

    -1.8190  -1.1800   2.1201   3.4218

     occupation numbers 
     1.0000   1.0000   1.0000   1.0000

          k = 0.0000 0.1010-0.7071 (   758 PWs)   bands (ev):

    -1.5651  -1.5651   3.1373   3.1373

     occupation numbers 
     1.0000   1.0000   1.0000   1.0000

          k = 0.0000 0.2020 0.4041 (   753 PWs)   bands (ev):

    -4.0196   1.3251   3.1092   4.4371

     occupation numbers 
     1.0000   1.0000   1.0000   1.0000

          k = 0.6566-0.4546-0.2525 (   751 PWs)   bands (ev):

    -3.5006   0.5357   2.7141   4.1292

     occupation numbers 
     1.0000   1.0000   1.0000   1.0000

          k = 0.6061-0.4041-0.2020 (   750 PWs)   bands (ev):

    -2.9765  -0.2096   2.5371   3.8987

     occupation numbers 
     1.0000   1.0000   1.0000   1.0000

          k = 0.5556-0.3536-0.1515 (   742 PWs)   bands (ev):

    -2.7067  -0.5619   2.4884   3.8143

     occupation numbers 
     1.0000   1.0000   1.0000   1.0000

          k = 0.7071-0.5051-0.2020 (   757 PWs)   bands (ev):

    -3.2884   0.4234   2.7684   3.6307

     occupation numbers 
     1.0000   1.0000   1.0000   1.0000

          k = 0.6566-0.4546-0.1515 (   747 PWs)   bands (ev):

    -2.7490  -0.2135   2.3997   3.3762

     occupation numbers 
     1.0000   1.0000   1.0000   1.0000

          k = 0.6061-0.4041-0.1010 (   743 PWs)   bands (ev):

    -2.3461  -0.6651   2.1518   3.3244

     occupation numbers 
     1.0000   1.0000   1.0000   1.0000

          k = 0.5556-0.3536-0.0505 (   746 PWs)   bands (ev):

    -2.4780  -0.5156   2.0645   3.4678

     occupation numbers 
     1.0000   1.0000   1.0000   1.0000

          k = 0.5051-0.3030 0.0000 (   745 PWs)   bands (ev):

    -2.9753   0.0234   2.2227   3.7593

     occupation numbers 
     1.0000   1.0000   1.0000   1.0000

          k = 0.7071-0.5051-0.1010 (   744 PWs)   bands (ev):

    -2.4355  -0.5258   2.6251   3.0364

     occupation numbers 
     1.0000   1.0000   1.0000   1.0000

          k = 0.6566-0.4546-0.0505 (   745 PWs)   bands (ev):

    -1.9444  -0.9937   2.2496   2.9424

     occupation numbers 
     1.0000   1.0000   1.0000   1.0000

          k = 0.6061-0.4041 0.0000 (   737 PWs)   bands (ev):

    -1.9976  -0.9236   1.9843   3.1286

     occupation numbers 
     1.0000   1.0000   1.0000   1.0000

          k =-0.0000 0.2020-0.7071 (   742 PWs)   bands (ev):

    -1.4974  -1.4974   2.7052   2.7052

     occupation numbers 
     1.0000   1.0000   1.0000   1.0000

          k = 0.7071-0.4041-0.1010 (   745 PWs)   bands (ev):

    -2.2206  -0.6855   2.1769   2.9581

     occupation numbers 
     1.0000   1.0000   1.0000   1.0000

          k = 0.6566-0.3536-0.0505 (   742 PWs)   bands (ev):

    -1.8954  -0.9933   2.1216   2.7894

     occupation numbers 
     1.0000   1.0000   1.0000   1.0000

          k = 0.0000 0.3030-0.7071 (   742 PWs)   bands (ev):

    -1.4389  -1.4389   2.4140   2.4140

     occupation numbers 
     1.0000   1.0000   1.0000   1.0000

     highest occupied level (ev):     6.2285

!    total energy              =     -16.92465764 Ry
     estimated scf accuracy    <          3.0E-10 Ry

     The total energy is the sum of the following terms:
     one-electron contribution =       4.95953862 Ry
     hartree contribution      =       1.09520200 Ry
     xc contribution           =      -6.18342397 Ry
     ewald contribution        =     -16.79597428 Ry

     convergence has been achieved in  11 iterations

     Forces acting on atoms (cartesian axes, Ry/au):

     atom    1 type  1   force =     0.00000000    0.00000000    0.00000000
     atom    2 type  1   force =     0.00000000    0.00000000   -0.00000000
     The non-local contrib.  to forces
     atom    1 type  1   force =    -0.00000000    0.00000000    0.00000000
     atom    2 type  1   force =     0.00000000   -0.00000000   -0.00000000
     The ionic contribution  to forces
     atom    1 type  1   force =     0.00000000    0.00000000    0.00000000
     atom    2 type  1   force =    -0.00000000   -0.00000000   -0.00000000
     The local contribution  to forces
     atom    1 type  1   force =     0.00000000    0.00000000    0.00000000
     atom    2 type  1   force =    -0.00000000   -0.00000000   -0.00000000
     The core correction contribution to forces
     atom    1 type  1   force =     0.00000000    0.00000000    0.00000000
     atom    2 type  1   force =     0.00000000    0.00000000    0.00000000
     The Hubbard contrib.    to forces
     atom    1 type  1   force =     0.00000000    0.00000000    0.00000000
     atom    2 type  1   force =     0.00000000    0.00000000    0.00000000
     The SCF correction term to forces
     atom    1 type  1   force =     0.00000000    0.00000000    0.00000000
     atom    2 type  1   force =    -0.00000000   -0.00000000    0.00000000

     Total force =     0.000000     Total SCF correction =     0.000000


     Computing stress (Cartesian axis) and pressure

          total   stress  (Ry/bohr**3)                   (kbar)     P=       18.82
   0.00012796  -0.00000000  -0.00000000           18.82       -0.00       -0.00
  -0.00000000   0.00012796  -0.00000000           -0.00       18.82       -0.00
  -0.00000000  -0.00000000   0.00012796           -0.00       -0.00       18.82

     kinetic stress (kbar)   2226.85      0.00      0.00
                                0.00   2226.85     -0.00
                                0.00      0.00   2226.85

     local   stress (kbar)   -128.91      0.00      0.00
                                0.00   -128.91      0.00
                                0.00      0.00   -128.91

     nonloc. stress (kbar)   1726.41     -0.00      0.00
                               -0.00   1726.41     -0.00
                               -0.00      0.00   1726.41

     hartree stress (kbar)    198.72      0.00      0.00
                                0.00    198.72      0.00
                                0.00      0.00    198.72

     exc-cor stress (kbar)   -169.13      0.00      0.00
                                0.00   -169.13     -0.00
                                0.00     -0.00   -169.13

     corecor stress (kbar)   -787.60      0.00      0.00
                                0.00   -787.60     -0.00
                                0.00     -0.00   -787.60

     ewald   stress (kbar)  -3047.51     -0.00      0.00
                               -0.00  -3047.51     -0.00
                                0.00     -0.00  -3047.51

     hubbard stress (kbar)      0.00      0.00      0.00
                                0.00      0.00      0.00
                                0.00      0.00      0.00

     DFT-D   stress (kbar)      0.00      0.00      0.00
                                0.00      0.00      0.00
                                0.00      0.00      0.00

     XDM     stress (kbar)      0.00      0.00      0.00
                                0.00      0.00      0.00
                                0.00      0.00      0.00

     dft-nl  stress (kbar)      0.00      0.00      0.00
                                0.00      0.00      0.00
                                0.00      0.00      0.00

     TS-vdW  stress (kbar)      0.00      0.00      0.00
                                0.00      0.00      0.00
                                0.00      0.00      0.00

     MDB     stress (kbar)      0.00      0.00      0.00
                                0.00      0.00      0.00
                                0.00      0.00      0.00

     3D-RISM stress (kbar)      0.00      0.00      0.00
                                0.00      0.00      0.00
                                0.00      0.00      0.00


     Writing all to output data dir ./out/aiida.save/ :
     XML data file, charge density, pseudopotentials, collected wavefunctions

     init_run     :      0.70s CPU      0.70s WALL (       1 calls)
     electrons    :      6.56s CPU      6.66s WALL (       1 calls)
     forces       :      0.07s CPU      0.07s WALL (       1 calls)
     stress       :      0.37s CPU      0.37s WALL (       1 calls)

     Called by init_run:
     wfcinit      :      0.36s CPU      0.36s WALL (       1 calls)
     wfcinit:atom :      0.01s CPU      0.01s WALL (     104 calls)
     wfcinit:wfcr :      0.32s CPU      0.32s WALL (     104 calls)
     potinit      :      0.14s CPU      0.14s WALL (       1 calls)
     hinit0       :      0.19s CPU      0.19s WALL (       1 calls)

     Called by electrons:
     c_bands      :      5.74s CPU      5.81s WALL (      12 calls)
     sum_band     :      0.71s CPU      0.71s WALL (      12 calls)
     v_of_rho     :      0.10s CPU      0.13s WALL (      12 calls)
     v_h          :      0.00s CPU      0.01s WALL (      12 calls)
     v_xc         :      0.12s CPU      0.15s WALL (      14 calls)
     mix_rho      :      0.01s CPU      0.01s WALL (      12 calls)

     Called by c_bands:
     init_us_2    :      0.33s CPU      0.34s WALL (    2808 calls)
     cegterg      :      5.02s CPU      5.08s WALL (    1248 calls)

     Called by sum_band:
     sum_band:wei :      0.00s CPU      0.00s WALL (      12 calls)
     sum_band:loo :      0.69s CPU      0.69s WALL (      12 calls)
     sum_band:buf :      0.00s CPU      0.00s WALL (    1248 calls)
     sum_band:ini :      0.14s CPU      0.14s WALL (    1248 calls)

     Called by *egterg:
     cdiaghg      :      0.07s CPU      0.07s WALL (    5246 calls)
     cegterg:over :      0.12s CPU      0.12s WALL (    4102 calls)
     cegterg:upda :      0.06s CPU      0.06s WALL (    4102 calls)
     cegterg:last :      0.10s CPU      0.10s WALL (    3706 calls)
     h_psi        :      4.88s CPU      4.94s WALL (    5454 calls)
     g_psi        :      0.03s CPU      0.03s WALL (    4102 calls)

     Called by h_psi:
     h_psi:calbec :      0.38s CPU      0.39s WALL (    5454 calls)
     vloc_psi     :      4.15s CPU      4.20s WALL (    5454 calls)
     add_vuspsi   :      0.33s CPU      0.33s WALL (    5454 calls)

     General routines
     calbec       :      0.42s CPU      0.42s WALL (    5974 calls)
     fft          :      0.17s CPU      0.17s WALL (     167 calls)
     ffts         :      0.11s CPU      0.11s WALL (      24 calls)
     fftw         :      4.02s CPU      4.07s WALL (   42602 calls)
     interpolate  :      0.11s CPU      0.11s WALL (      12 calls)

     Parallel routines

     PWSCF        :      7.72s CPU      7.83s WALL


   This run was terminated on:   9:39:32   5Aug2024            

=------------------------------------------------------------------------------=
   JOB DONE.
=------------------------------------------------------------------------------=
