
     Program PROJWFC v.7.3.1 starts on 20Aug2024 at 10:54:41 

     This program is part of the open-source Quantum ESPRESSO suite
     for quantum simulation of materials; please cite
         "P. Giannozzi et al., J. Phys.:Condens. Matter 21 395502 (2009);
         "P. Giannozzi et al., J. Phys.:Condens. Matter 29 465901 (2017);
         "P. Giannozzi et al., J. Chem. Phys. 152 154105 (2020);
          URL http://www.quantum-espresso.org", 
     in publications or presentations arising from this work. More details at
     http://www.quantum-espresso.org/quote

     Parallel version (MPI), running on     1 processors

     MPI processes distributed on     1 nodes
     563 MiB available memory on the printing compute node when the environment starts


     Reading xml data from directory:

     ./out/si_lda.save/
     Message from routine volume:
     axis vectors are left-handed

     IMPORTANT: XC functional enforced from input :
     Exchange-correlation= PW
                           (   1   4   0   0   0   0   0)
     Any further DFT definition will be discarded
     Please, verify this is what you really want


     G-vector sticks info
     --------------------
     sticks:   dense  smooth     PW     G-vecs:    dense   smooth      PW
     Sum         859     433    151                16889     5985    1243

     Using Slab Decomposition


     Gaussian broadening (read from input): ngauss,degauss=   0    0.010000


     Calling projwave .... 
     Subspace diagonalization in iterative solution of the eigenvalue problem:
     a serial algorithm will be used


  Problem Sizes 
  natomwfc =            8
  nbnd     =            4
  nkstot   =         2662
  npwx     =          763
  nkb      =           36


     Atomic states used for projection
     (read from pseudopotential files):

     state #   1: atom   1 (Si ), wfc  1 (l=0 m= 1)
     state #   2: atom   1 (Si ), wfc  2 (l=1 m= 1)
     state #   3: atom   1 (Si ), wfc  2 (l=1 m= 2)
     state #   4: atom   1 (Si ), wfc  2 (l=1 m= 3)
     state #   5: atom   2 (Si ), wfc  1 (l=0 m= 1)
     state #   6: atom   2 (Si ), wfc  2 (l=1 m= 1)
     state #   7: atom   2 (Si ), wfc  2 (l=1 m= 2)
     state #   8: atom   2 (Si ), wfc  2 (l=1 m= 3)

 k =   0.0000000000  0.0000000000  0.0000000000
==== e(   1) =    -5.92604 eV ==== 
     psi = 0.498*[#   1]+0.498*[#   5]
    |psi|^2 = 0.996
==== e(   2) =     6.03408 eV ==== 
     psi = 0.231*[#   4]+0.231*[#   8]+0.053*[#   3]+0.053*[#   7]
    |psi|^2 = 0.568
==== e(   3) =     6.03408 eV ==== 
     psi = 0.301*[#   3]+0.301*[#   7]+0.197*[#   2]+0.197*[#   6]+0.013*[#   4]
          +0.013*[#   8]
    |psi|^2 = 1.022
==== e(   4) =     6.03408 eV ==== 
     psi = 0.237*[#   4]+0.237*[#   8]+0.127*[#   3]+0.127*[#   7]+0.053*[#   2]
          +0.053*[#   6]
    |psi|^2 = 0.834

 k =  -0.0642824347  0.0642824347  0.0642824347
==== e(   1) =    -5.81787 eV ==== 
     psi = 0.470*[#   1]+0.470*[#   5]+0.009*[#   2]+0.009*[#   3]+0.009*[#   4]
          +0.009*[#   6]+0.009*[#   7]+0.009*[#   8]
    |psi|^2 = 0.996
==== e(   2) =     5.03388 eV ==== 
     psi = 0.140*[#   3]+0.140*[#   4]+0.140*[#   7]+0.140*[#   8]+0.067*[#   1]
          +0.067*[#   5]+0.009*[#   2]+0.009*[#   6]
    |psi|^2 = 0.713
==== e(   3) =     5.86617 eV ==== 
     psi = 0.249*[#   3]+0.249*[#   7]+0.140*[#   2]+0.140*[#   6]
    |psi|^2 = 0.778
==== e(   4) =     5.86617 eV ==== 
     psi = 0.322*[#   4]+0.322*[#   8]+0.140*[#   2]+0.140*[#   6]+0.074*[#   3]
          +0.074*[#   7]
    |psi|^2 = 1.072

 k =  -0.1285648693  0.1285648693  0.1285648693
==== e(   1) =    -5.49747 eV ==== 
     psi = 0.415*[#   1]+0.415*[#   5]+0.028*[#   2]+0.028*[#   3]+0.028*[#   4]
          +0.028*[#   6]+0.028*[#   7]+0.028*[#   8]
    |psi|^2 = 0.996
==== e(   2) =     3.34853 eV ==== 
     psi = 0.124*[#   3]+0.124*[#   4]+0.124*[#   7]+0.124*[#   8]+0.120*[#   1]
          +0.120*[#   5]+0.028*[#   2]+0.028*[#   6]
    |psi|^2 = 0.791
==== e(   3) =     5.52495 eV ==== 
     psi = 0.252*[#   3]+0.252*[#   7]+0.124*[#   2]+0.124*[#   6]
    |psi|^2 = 0.755
==== e(   4) =     5.52495 eV ==== 
     psi = 0.324*[#   4]+0.324*[#   8]+0.124*[#   2]+0.124*[#   6]+0.073*[#   3]
          +0.073*[#   7]
    |psi|^2 = 1.043

 k =  -0.1928473040  0.1928473040  0.1928473040
==== e(   1) =    -4.98113 eV ==== 
     psi = 0.373*[#   1]+0.373*[#   5]+0.042*[#   2]+0.042*[#   3]+0.042*[#   4]
          +0.042*[#   6]+0.042*[#   7]+0.042*[#   8]
    |psi|^2 = 0.995
==== e(   2) =     1.68603 eV ==== 
     psi = 0.145*[#   1]+0.145*[#   5]+0.116*[#   3]+0.116*[#   4]+0.116*[#   7]
          +0.116*[#   8]+0.042*[#   2]+0.042*[#   6]
    |psi|^2 = 0.838
==== e(   3) =     5.20190 eV ==== 
     psi = 0.257*[#   3]+0.257*[#   7]+0.116*[#   2]+0.116*[#   6]+0.001*[#   4]
          +0.001*[#   8]
    |psi|^2 = 0.749
==== e(   4) =     5.20190 eV ==== 
     psi = 0.326*[#   4]+0.326*[#   8]+0.116*[#   2]+0.116*[#   6]+0.070*[#   3]
          +0.070*[#   7]
    |psi|^2 = 1.025

 k =  -0.2571297386  0.2571297386  0.2571297386
==== e(   1) =    -4.31929 eV ==== 
     psi = 0.358*[#   1]+0.358*[#   5]+0.047*[#   2]+0.047*[#   3]+0.047*[#   4]
          +0.047*[#   6]+0.047*[#   7]+0.047*[#   8]
    |psi|^2 = 0.995
==== e(   2) =     0.22752 eV ==== 
     psi = 0.148*[#   1]+0.148*[#   5]+0.115*[#   3]+0.115*[#   4]+0.115*[#   7]
          +0.115*[#   8]+0.047*[#   2]+0.047*[#   6]
    |psi|^2 = 0.851
==== e(   3) =     4.97102 eV ==== 
     psi = 0.259*[#   3]+0.259*[#   7]+0.115*[#   2]+0.115*[#   6]
    |psi|^2 = 0.751
==== e(   4) =     4.97102 eV ==== 
     psi = 0.328*[#   4]+0.328*[#   8]+0.115*[#   2]+0.115*[#   6]+0.070*[#   3]
          +0.070*[#   7]
    |psi|^2 = 1.026

 k =  -0.3214121733  0.3214121733  0.3214121733
==== e(   1) =    -3.70513 eV ==== 
     psi = 0.375*[#   1]+0.375*[#   5]+0.041*[#   2]+0.041*[#   3]+0.041*[#   4]
          +0.041*[#   6]+0.041*[#   7]+0.041*[#   8]
    |psi|^2 = 0.996
==== e(   2) =    -0.79232 eV ==== 
     psi = 0.125*[#   1]+0.125*[#   5]+0.123*[#   3]+0.123*[#   4]+0.123*[#   7]
          +0.123*[#   8]+0.041*[#   2]+0.041*[#   6]
    |psi|^2 = 0.823
==== e(   3) =     4.85351 eV ==== 
     psi = 0.259*[#   3]+0.259*[#   7]+0.123*[#   2]+0.123*[#   6]
    |psi|^2 = 0.766
==== e(   4) =     4.85351 eV ==== 
     psi = 0.329*[#   4]+0.329*[#   8]+0.123*[#   2]+0.123*[#   6]+0.070*[#   3]
          +0.070*[#   7]
    |psi|^2 = 1.043

 k =   0.3214121733 -0.3214121733 -0.3214121733
==== e(   1) =    -3.70513 eV ==== 
     psi = 0.375*[#   1]+0.375*[#   5]+0.041*[#   2]+0.041*[#   3]+0.041*[#   4]
          +0.041*[#   6]+0.041*[#   7]+0.041*[#   8]
    |psi|^2 = 0.996
==== e(   2) =    -0.79232 eV ==== 
     psi = 0.125*[#   1]+0.125*[#   5]+0.123*[#   3]+0.123*[#   4]+0.123*[#   7]
          +0.123*[#   8]+0.041*[#   2]+0.041*[#   6]
    |psi|^2 = 0.823
==== e(   3) =     4.85351 eV ==== 
     psi = 0.259*[#   3]+0.259*[#   7]+0.123*[#   2]+0.123*[#   6]
    |psi|^2 = 0.766
==== e(   4) =     4.85351 eV ==== 
     psi = 0.329*[#   4]+0.329*[#   8]+0.123*[#   2]+0.123*[#   6]+0.070*[#   3]
          +0.070*[#   7]
    |psi|^2 = 1.043

 k =   0.2571297386 -0.2571297386 -0.2571297386
==== e(   1) =    -4.31929 eV ==== 
     psi = 0.358*[#   1]+0.358*[#   5]+0.047*[#   2]+0.047*[#   3]+0.047*[#   4]
          +0.047*[#   6]+0.047*[#   7]+0.047*[#   8]
    |psi|^2 = 0.995
==== e(   2) =     0.22752 eV ==== 
     psi = 0.148*[#   1]+0.148*[#   5]+0.115*[#   3]+0.115*[#   4]+0.115*[#   7]
          +0.115*[#   8]+0.047*[#   2]+0.047*[#   6]
    |psi|^2 = 0.851
==== e(   3) =     4.97102 eV ==== 
     psi = 0.259*[#   3]+0.259*[#   7]+0.115*[#   2]+0.115*[#   6]
    |psi|^2 = 0.751
==== e(   4) =     4.97102 eV ==== 
     psi = 0.328*[#   4]+0.328*[#   8]+0.115*[#   2]+0.115*[#   6]+0.070*[#   3]
          +0.070*[#   7]
    |psi|^2 = 1.026

 k =   0.1928473040 -0.1928473040 -0.1928473040
==== e(   1) =    -4.98113 eV ==== 
     psi = 0.373*[#   1]+0.373*[#   5]+0.042*[#   2]+0.042*[#   3]+0.042*[#   4]
          +0.042*[#   6]+0.042*[#   7]+0.042*[#   8]
    |psi|^2 = 0.995
==== e(   2) =     1.68603 eV ==== 
     psi = 0.145*[#   1]+0.145*[#   5]+0.116*[#   3]+0.116*[#   4]+0.116*[#   7]
          +0.116*[#   8]+0.042*[#   2]+0.042*[#   6]
    |psi|^2 = 0.838
==== e(   3) =     5.20190 eV ==== 
     psi = 0.257*[#   3]+0.257*[#   7]+0.116*[#   2]+0.116*[#   6]+0.001*[#   4]
          +0.001*[#   8]
    |psi|^2 = 0.749
==== e(   4) =     5.20190 eV ==== 
     psi = 0.326*[#   4]+0.326*[#   8]+0.116*[#   2]+0.116*[#   6]+0.070*[#   3]
          +0.070*[#   7]
    |psi|^2 = 1.025

 k =   0.1285648693 -0.1285648693 -0.1285648693
==== e(   1) =    -5.49747 eV ==== 
     psi = 0.415*[#   1]+0.415*[#   5]+0.028*[#   2]+0.028*[#   3]+0.028*[#   4]
          +0.028*[#   6]+0.028*[#   7]+0.028*[#   8]
    |psi|^2 = 0.996
==== e(   2) =     3.34853 eV ==== 
     psi = 0.124*[#   3]+0.124*[#   4]+0.124*[#   7]+0.124*[#   8]+0.120*[#   1]
          +0.120*[#   5]+0.028*[#   2]+0.028*[#   6]
    |psi|^2 = 0.791
==== e(   3) =     5.52495 eV ==== 
     psi = 0.254*[#   3]+0.254*[#   7]+0.124*[#   2]+0.124*[#   6]
    |psi|^2 = 0.757
==== e(   4) =     5.52495 eV ==== 
     psi = 0.325*[#   4]+0.325*[#   8]+0.124*[#   2]+0.124*[#   6]+0.071*[#   3]
          +0.071*[#   7]
    |psi|^2 = 1.040

 k =   0.0642824347 -0.0642824347 -0.0642824347
==== e(   1) =    -5.81787 eV ==== 
     psi = 0.470*[#   1]+0.470*[#   5]+0.009*[#   2]+0.009*[#   3]+0.009*[#   4]
          +0.009*[#   6]+0.009*[#   7]+0.009*[#   8]
    |psi|^2 = 0.996
==== e(   2) =     5.03388 eV ==== 
     psi = 0.140*[#   3]+0.140*[#   4]+0.140*[#   7]+0.140*[#   8]+0.067*[#   1]
          +0.067*[#   5]+0.009*[#   2]+0.009*[#   6]
    |psi|^2 = 0.713
==== e(   3) =     5.86617 eV ==== 
     psi = 0.249*[#   3]+0.249*[#   7]+0.140*[#   2]+0.140*[#   6]
    |psi|^2 = 0.778
==== e(   4) =     5.86617 eV ==== 
     psi = 0.322*[#   4]+0.322*[#   8]+0.140*[#   2]+0.140*[#   6]+0.074*[#   3]
          +0.074*[#   7]
    |psi|^2 = 1.072

 k =   0.0642824347 -0.0642824347  0.0642824347
==== e(   1) =    -5.81787 eV ==== 
     psi = 0.470*[#   1]+0.470*[#   5]+0.009*[#   2]+0.009*[#   3]+0.009*[#   4]
          +0.009*[#   6]+0.009*[#   7]+0.009*[#   8]
    |psi|^2 = 0.996
==== e(   2) =     5.03388 eV ==== 
     psi = 0.140*[#   3]+0.140*[#   4]+0.140*[#   7]+0.140*[#   8]+0.067*[#   1]
          +0.067*[#   5]+0.009*[#   2]+0.009*[#   6]
    |psi|^2 = 0.713
==== e(   3) =     5.86617 eV ==== 
     psi = 0.183*[#   4]+0.183*[#   8]+0.140*[#   2]+0.140*[#   6]+0.013*[#   3]
          +0.013*[#   7]
    |psi|^2 = 0.672
==== e(   4) =     5.86617 eV ==== 
     psi = 0.310*[#   3]+0.310*[#   7]+0.140*[#   2]+0.140*[#   6]+0.139*[#   4]
          +0.139*[#   8]
    |psi|^2 = 1.179

 k =   0.0000000000  0.0000000000  0.1285648693
==== e(   1) =    -5.78162 eV ==== 
     psi = 0.461*[#   1]+0.461*[#   5]+0.037*[#   2]+0.037*[#   6]
    |psi|^2 = 0.996
==== e(   2) =     5.21341 eV ==== 
     psi = 0.099*[#   1]+0.099*[#   5]
    |psi|^2 = 0.197
==== e(   3) =     5.53768 eV ==== 
     psi = 0.387*[#   2]+0.387*[#   6]+0.291*[#   4]+0.274*[#   7]+0.213*[#   8]
          +0.196*[#   3]
    |psi|^2 = 1.747
==== e(   4) =     5.53768 eV ==== 
     psi = 0.291*[#   3]+0.274*[#   8]+0.213*[#   7]+0.196*[#   4]
    |psi|^2 = 0.973

 k =  -0.0642824347  0.0642824347  0.1928473040
==== e(   1) =    -5.53122 eV ==== 
     psi = 0.418*[#   1]+0.418*[#   5]+0.066*[#   2]+0.066*[#   6]+0.007*[#   3]
          +0.007*[#   4]+0.007*[#   7]+0.007*[#   8]
    |psi|^2 = 0.996
==== e(   2) =     3.84965 eV ==== 
     psi = 0.122*[#   1]+0.122*[#   5]+0.095*[#   3]+0.095*[#   4]+0.095*[#   7]
          +0.095*[#   8]+0.007*[#   2]+0.007*[#   6]
    |psi|^2 = 0.637
==== e(   3) =     5.13966 eV ==== 
     psi = 0.245*[#   3]+0.245*[#   4]+0.245*[#   7]+0.245*[#   8]+0.179*[#   2]
          +0.179*[#   6]
    |psi|^2 = 1.338
==== e(   4) =     5.31966 eV ==== 
     psi = 0.124*[#   3]+0.124*[#   4]+0.124*[#   7]+0.124*[#   8]+0.095*[#   2]
          +0.095*[#   6]+0.032*[#   1]+0.032*[#   5]
    |psi|^2 = 0.749

 k =  -0.1285648693  0.1285648693  0.2571297386
==== e(   1) =    -5.07771 eV ==== 
     psi = 0.375*[#   1]+0.375*[#   5]+0.084*[#   2]+0.084*[#   6]+0.020*[#   3]
          +0.020*[#   4]+0.020*[#   7]+0.020*[#   8]
    |psi|^2 = 0.995
==== e(   2) =     2.22496 eV ==== 
     psi = 0.148*[#   1]+0.148*[#   5]+0.110*[#   3]+0.110*[#   4]+0.110*[#   7]
          +0.110*[#   8]+0.020*[#   2]+0.020*[#   6]
    |psi|^2 = 0.774
==== e(   3) =     4.82085 eV ==== 
     psi = 0.246*[#   3]+0.246*[#   4]+0.246*[#   7]+0.246*[#   8]+0.126*[#   2]
          +0.126*[#   6]
    |psi|^2 = 1.237
==== e(   4) =     4.94317 eV ==== 
     psi = 0.110*[#   2]+0.110*[#   6]+0.086*[#   3]+0.086*[#   4]+0.086*[#   7]
          +0.086*[#   8]+0.047*[#   1]+0.047*[#   5]
    |psi|^2 = 0.659

 k =  -0.1928473040  0.1928473040  0.3214121733
==== e(   1) =    -4.45480 eV ==== 
     psi = 0.352*[#   1]+0.352*[#   5]+0.087*[#   2]+0.087*[#   6]+0.029*[#   3]
          +0.029*[#   4]+0.029*[#   7]+0.029*[#   8]
    |psi|^2 = 0.995
==== e(   2) =     0.71373 eV ==== 
     psi = 0.156*[#   1]+0.156*[#   5]+0.115*[#   3]+0.115*[#   4]+0.115*[#   7]
          +0.115*[#   8]+0.029*[#   2]+0.029*[#   6]
    |psi|^2 = 0.832
==== e(   3) =     4.55958 eV ==== 
     psi = 0.107*[#   2]+0.107*[#   6]+0.077*[#   3]+0.077*[#   4]+0.077*[#   7]
          +0.077*[#   8]+0.053*[#   1]+0.053*[#   5]
    |psi|^2 = 0.630
==== e(   4) =     4.63497 eV ==== 
     psi = 0.247*[#   3]+0.247*[#   4]+0.247*[#   7]+0.247*[#   8]+0.115*[#   2]
          +0.115*[#   6]
    |psi|^2 = 1.217

 k =  -0.2571297386  0.2571297386  0.3856946079
==== e(   1) =    -3.78207 eV ==== 
     psi = 0.359*[#   1]+0.359*[#   5]+0.074*[#   2]+0.074*[#   6]+0.032*[#   3]
          +0.032*[#   4]+0.032*[#   7]+0.032*[#   8]
    |psi|^2 = 0.996
==== e(   2) =    -0.48332 eV ==== 
     psi = 0.142*[#   1]+0.142*[#   5]+0.122*[#   3]+0.122*[#   4]+0.122*[#   7]
          +0.122*[#   8]+0.032*[#   2]+0.032*[#   6]
    |psi|^2 = 0.835
==== e(   3) =     4.26062 eV ==== 
     psi = 0.109*[#   2]+0.109*[#   6]+0.079*[#   3]+0.079*[#   4]+0.079*[#   7]
          +0.079*[#   8]+0.054*[#   1]+0.054*[#   5]
    |psi|^2 = 0.640
==== e(   4) =     4.59588 eV ==== 
     psi = 0.247*[#   3]+0.247*[#   4]+0.247*[#   7]+0.247*[#   8]+0.122*[#   2]
          +0.122*[#   6]
    |psi|^2 = 1.232

 k =   0.3856946079 -0.3856946079 -0.2571297386
==== e(   1) =    -3.50976 eV ==== 
     psi = 0.374*[#   1]+0.374*[#   5]+0.042*[#   2]+0.042*[#   6]+0.041*[#   3]
          +0.041*[#   4]+0.041*[#   7]+0.041*[#   8]
    |psi|^2 = 0.997
==== e(   2) =    -0.88752 eV ==== 
     psi = 0.125*[#   1]+0.125*[#   5]+0.119*[#   3]+0.119*[#   4]+0.119*[#   7]
          +0.119*[#   8]+0.041*[#   2]+0.041*[#   6]
    |psi|^2 = 0.810
==== e(   3) =     4.08208 eV ==== 
     psi = 0.130*[#   2]+0.130*[#   6]+0.084*[#   3]+0.084*[#   4]+0.084*[#   7]
          +0.084*[#   8]+0.052*[#   1]+0.052*[#   5]
    |psi|^2 = 0.700
==== e(   4) =     4.69870 eV ==== 
     psi = 0.247*[#   3]+0.247*[#   4]+0.247*[#   7]+0.247*[#   8]+0.119*[#   2]
          +0.119*[#   6]
    |psi|^2 = 1.227

 k =   0.3214121733 -0.3214121733 -0.1928473040
==== e(   1) =    -3.99691 eV ==== 
     psi = 0.354*[#   1]+0.354*[#   5]+0.059*[#   3]+0.059*[#   4]+0.059*[#   7]
          +0.059*[#   8]+0.026*[#   2]+0.026*[#   6]
    |psi|^2 = 0.996
==== e(   2) =    -0.13430 eV ==== 
     psi = 0.149*[#   1]+0.149*[#   5]+0.106*[#   3]+0.106*[#   4]+0.106*[#   7]
          +0.106*[#   8]+0.059*[#   2]+0.059*[#   6]
    |psi|^2 = 0.839
==== e(   3) =     4.04504 eV ==== 
     psi = 0.134*[#   2]+0.134*[#   6]+0.090*[#   3]+0.090*[#   4]+0.090*[#   7]
          +0.090*[#   8]+0.048*[#   1]+0.048*[#   5]
    |psi|^2 = 0.722
==== e(   4) =     4.92713 eV ==== 
     psi = 0.247*[#   3]+0.247*[#   4]+0.247*[#   7]+0.247*[#   8]+0.106*[#   2]
          +0.106*[#   6]
    |psi|^2 = 1.199

 k =   0.2571297386 -0.2571297386 -0.1285648693
==== e(   1) =    -4.67868 eV ==== 
     psi = 0.358*[#   1]+0.358*[#   5]+0.061*[#   3]+0.061*[#   4]+0.061*[#   7]
          +0.061*[#   8]+0.017*[#   2]+0.017*[#   6]
    |psi|^2 = 0.995
==== e(   2) =     1.19752 eV ==== 
     psi = 0.155*[#   1]+0.155*[#   5]+0.106*[#   3]+0.106*[#   4]+0.106*[#   7]
          +0.106*[#   8]+0.061*[#   2]+0.061*[#   6]
    |psi|^2 = 0.857
==== e(   3) =     4.16580 eV ==== 
     psi = 0.127*[#   2]+0.127*[#   6]+0.093*[#   3]+0.093*[#   4]+0.093*[#   7]
          +0.093*[#   8]+0.043*[#   1]+0.043*[#   5]
    |psi|^2 = 0.713
==== e(   4) =     5.25206 eV ==== 
     psi = 0.246*[#   3]+0.246*[#   4]+0.246*[#   7]+0.246*[#   8]+0.106*[#   2]
          +0.106*[#   6]
    |psi|^2 = 1.197

 k =   0.1928473040 -0.1928473040 -0.0642824347
==== e(   1) =    -5.25120 eV ==== 
     psi = 0.388*[#   1]+0.388*[#   5]+0.051*[#   3]+0.051*[#   4]+0.051*[#   7]
          +0.051*[#   8]+0.007*[#   2]+0.007*[#   6]
    |psi|^2 = 0.996
==== e(   2) =     2.75157 eV ==== 
     psi = 0.140*[#   1]+0.140*[#   5]+0.119*[#   3]+0.119*[#   4]+0.119*[#   7]
          +0.119*[#   8]+0.051*[#   2]+0.051*[#   6]
    |psi|^2 = 0.861
==== e(   3) =     4.46304 eV ==== 
     psi = 0.114*[#   2]+0.114*[#   6]+0.090*[#   3]+0.090*[#   4]+0.090*[#   7]
          +0.090*[#   8]+0.034*[#   1]+0.034*[#   5]
    |psi|^2 = 0.657
==== e(   4) =     5.61711 eV ==== 
     psi = 0.245*[#   3]+0.245*[#   4]+0.245*[#   7]+0.245*[#   8]+0.119*[#   2]
          +0.119*[#   6]
    |psi|^2 = 1.217

 k =   0.1285648693 -0.1285648693 -0.0000000000
==== e(   1) =    -5.63866 eV ==== 
     psi = 0.434*[#   1]+0.434*[#   5]+0.032*[#   3]+0.032*[#   4]+0.032*[#   7]
          +0.032*[#   8]
    |psi|^2 = 0.996
==== e(   2) =     4.22640 eV ==== 
     psi = 0.153*[#   3]+0.153*[#   4]+0.153*[#   7]+0.153*[#   8]+0.110*[#   1]
          +0.110*[#   5]+0.032*[#   2]+0.032*[#   6]
    |psi|^2 = 0.894
==== e(   3) =     5.03191 eV ==== 
     psi = 0.074*[#   2]+0.074*[#   6]+0.067*[#   3]+0.067*[#   4]+0.067*[#   7]
          +0.067*[#   8]+0.015*[#   1]+0.015*[#   5]
    |psi|^2 = 0.448
==== e(   4) =     5.89228 eV ==== 
     psi = 0.243*[#   3]+0.243*[#   4]+0.243*[#   7]+0.243*[#   8]+0.153*[#   2]
          +0.153*[#   6]
    |psi|^2 = 1.276

 k =   0.1285648693 -0.1285648693  0.1285648693
==== e(   1) =    -5.49747 eV ==== 
     psi = 0.415*[#   1]+0.415*[#   5]+0.028*[#   2]+0.028*[#   3]+0.028*[#   4]
          +0.028*[#   6]+0.028*[#   7]+0.028*[#   8]
    |psi|^2 = 0.996
==== e(   2) =     3.34853 eV ==== 
     psi = 0.124*[#   3]+0.124*[#   4]+0.124*[#   7]+0.124*[#   8]+0.120*[#   1]
          +0.120*[#   5]+0.028*[#   2]+0.028*[#   6]
    |psi|^2 = 0.791
==== e(   3) =     5.52495 eV ==== 
     psi = 0.190*[#   4]+0.190*[#   8]+0.124*[#   2]+0.124*[#   6]+0.012*[#   3]
          +0.012*[#   7]
    |psi|^2 = 0.651
==== e(   4) =     5.52495 eV ==== 
     psi = 0.314*[#   3]+0.314*[#   7]+0.135*[#   4]+0.135*[#   8]+0.124*[#   2]
          +0.124*[#   6]
    |psi|^2 = 1.146

 k =   0.0642824347 -0.0642824347  0.1928473040
==== e(   1) =    -5.53122 eV ==== 
     psi = 0.418*[#   1]+0.418*[#   5]+0.066*[#   2]+0.066*[#   6]+0.007*[#   3]
          +0.007*[#   4]+0.007*[#   7]+0.007*[#   8]
    |psi|^2 = 0.996
==== e(   2) =     3.84965 eV ==== 
     psi = 0.122*[#   1]+0.122*[#   5]+0.095*[#   3]+0.095*[#   4]+0.095*[#   7]
          +0.095*[#   8]+0.007*[#   2]+0.007*[#   6]
    |psi|^2 = 0.637
==== e(   3) =     5.13966 eV ==== 
     psi = 0.245*[#   3]+0.245*[#   4]+0.245*[#   7]+0.245*[#   8]+0.179*[#   2]
          +0.179*[#   6]
    |psi|^2 = 1.338
==== e(   4) =     5.31966 eV ==== 
     psi = 0.124*[#   3]+0.124*[#   4]+0.124*[#   7]+0.124*[#   8]+0.095*[#   2]
          +0.095*[#   6]+0.032*[#   1]+0.032*[#   5]
    |psi|^2 = 0.749

 k =   0.0000000000  0.0000000000  0.2571297386
==== e(   1) =    -5.35104 eV ==== 
     psi = 0.393*[#   1]+0.393*[#   5]+0.105*[#   2]+0.105*[#   6]
    |psi|^2 = 0.996
==== e(   2) =     3.70839 eV ==== 
     psi = 0.180*[#   1]+0.180*[#   5]
    |psi|^2 = 0.360
==== e(   3) =     4.70422 eV ==== 
     psi = 0.386*[#   4]+0.374*[#   7]+0.310*[#   2]+0.310*[#   6]+0.118*[#   8]
          +0.106*[#   3]
    |psi|^2 = 1.606
==== e(   4) =     4.70422 eV ==== 
     psi = 0.386*[#   3]+0.374*[#   8]+0.118*[#   7]+0.106*[#   4]
    |psi|^2 = 0.985

 k =  -0.0642824347  0.0642824347  0.3214121733
==== e(   1) =    -4.96387 eV ==== 
     psi = 0.361*[#   1]+0.361*[#   5]+0.127*[#   2]+0.127*[#   6]+0.005*[#   3]
          +0.005*[#   4]+0.005*[#   7]+0.005*[#   8]
    |psi|^2 = 0.995
==== e(   2) =     2.54873 eV ==== 
     psi = 0.184*[#   1]+0.184*[#   5]+0.050*[#   3]+0.050*[#   4]+0.050*[#   7]
          +0.050*[#   8]+0.005*[#   2]+0.005*[#   6]
    |psi|^2 = 0.579
==== e(   3) =     4.27952 eV ==== 
     psi = 0.208*[#   2]+0.208*[#   6]+0.173*[#   3]+0.173*[#   4]+0.173*[#   7]
          +0.173*[#   8]+0.034*[#   1]+0.034*[#   5]
    |psi|^2 = 1.176
==== e(   4) =     4.36071 eV ==== 
     psi = 0.247*[#   3]+0.247*[#   4]+0.247*[#   7]+0.247*[#   8]+0.050*[#   2]
          +0.050*[#   6]
    |psi|^2 = 1.089

 k =  -0.1285648693  0.1285648693  0.3856946079
==== e(   1) =    -4.39218 eV ==== 
     psi = 0.338*[#   1]+0.338*[#   5]+0.133*[#   2]+0.133*[#   6]+0.013*[#   3]
          +0.013*[#   4]+0.013*[#   7]+0.013*[#   8]
    |psi|^2 = 0.995
==== e(   2) =     1.17321 eV ==== 
     psi = 0.186*[#   1]+0.186*[#   5]+0.085*[#   3]+0.085*[#   4]+0.085*[#   7]
          +0.085*[#   8]+0.013*[#   2]+0.013*[#   6]
    |psi|^2 = 0.738
==== e(   3) =     3.74034 eV ==== 
     psi = 0.139*[#   2]+0.139*[#   6]+0.119*[#   3]+0.119*[#   4]+0.119*[#   7]
          +0.119*[#   8]+0.060*[#   1]+0.060*[#   5]
    |psi|^2 = 0.872
==== e(   4) =     4.16452 eV ==== 
     psi = 0.247*[#   3]+0.247*[#   4]+0.247*[#   7]+0.247*[#   8]+0.085*[#   2]
          +0.085*[#   6]
    |psi|^2 = 1.160

 k =  -0.1928473040  0.1928473040  0.4499770426
==== e(   1) =    -3.70988 eV ==== 
     psi = 0.336*[#   1]+0.336*[#   5]+0.122*[#   2]+0.122*[#   6]+0.020*[#   3]
          +0.020*[#   4]+0.020*[#   7]+0.020*[#   8]
    |psi|^2 = 0.995
==== e(   2) =    -0.06890 eV ==== 
     psi = 0.177*[#   1]+0.177*[#   5]+0.103*[#   3]+0.103*[#   4]+0.103*[#   7]
          +0.103*[#   8]+0.020*[#   2]+0.020*[#   6]
    |psi|^2 = 0.807
==== e(   3) =     3.26018 eV ==== 
     psi = 0.112*[#   2]+0.112*[#   6]+0.100*[#   3]+0.100*[#   4]+0.100*[#   7]
          +0.100*[#   8]+0.067*[#   1]+0.067*[#   5]
    |psi|^2 = 0.757
==== e(   4) =     4.13319 eV ==== 
     psi = 0.248*[#   3]+0.248*[#   4]+0.248*[#   7]+0.248*[#   8]+0.103*[#   2]
          +0.103*[#   6]
    |psi|^2 = 1.197

 k =   0.4499770426 -0.4499770426 -0.1928473040
==== e(   1) =    -3.22331 eV ==== 
     psi = 0.354*[#   1]+0.354*[#   5]+0.079*[#   2]+0.079*[#   6]+0.032*[#   3]
          +0.032*[#   4]+0.032*[#   7]+0.032*[#   8]
    |psi|^2 = 0.996
==== e(   2) =    -0.78349 eV ==== 
     psi = 0.153*[#   1]+0.153*[#   5]+0.107*[#   3]+0.107*[#   4]+0.107*[#   7]
          +0.107*[#   8]+0.032*[#   2]+0.032*[#   6]
    |psi|^2 = 0.801
==== e(   3) =     2.92241 eV ==== 
     psi = 0.127*[#   2]+0.127*[#   6]+0.096*[#   3]+0.096*[#   4]+0.096*[#   7]
          +0.096*[#   8]+0.067*[#   1]+0.067*[#   5]
    |psi|^2 = 0.770
==== e(   4) =     4.26558 eV ==== 
     psi = 0.248*[#   3]+0.248*[#   4]+0.248*[#   7]+0.248*[#   8]+0.107*[#   2]
          +0.107*[#   6]
    |psi|^2 = 1.205

 k =   0.3856946079 -0.3856946079 -0.1285648693
==== e(   1) =    -3.51088 eV ==== 
     psi = 0.343*[#   1]+0.343*[#   5]+0.061*[#   3]+0.061*[#   4]+0.061*[#   7]
          +0.061*[#   8]+0.033*[#   2]+0.033*[#   6]
    |psi|^2 = 0.996
==== e(   2) =    -0.36918 eV ==== 
     psi = 0.167*[#   1]+0.167*[#   5]+0.090*[#   3]+0.090*[#   4]+0.090*[#   7]
          +0.090*[#   8]+0.061*[#   2]+0.061*[#   6]
    |psi|^2 = 0.815
==== e(   3) =     2.76730 eV ==== 
     psi = 0.148*[#   2]+0.148*[#   6]+0.097*[#   3]+0.097*[#   4]+0.097*[#   7]
          +0.097*[#   8]+0.063*[#   1]+0.063*[#   5]
    |psi|^2 = 0.810
==== e(   4) =     4.54524 eV ==== 
     psi = 0.247*[#   3]+0.247*[#   4]+0.247*[#   7]+0.247*[#   8]+0.090*[#   2]
          +0.090*[#   6]
    |psi|^2 = 1.169

 k =   0.3214121733 -0.3214121733 -0.0642824347
==== e(   1) =    -4.18553 eV ==== 
     psi = 0.339*[#   1]+0.339*[#   5]+0.072*[#   3]+0.072*[#   4]+0.072*[#   7]
          +0.072*[#   8]+0.014*[#   2]+0.014*[#   6]
    |psi|^2 = 0.995
==== e(   2) =     0.75294 eV ==== 
     psi = 0.181*[#   1]+0.181*[#   5]+0.088*[#   3]+0.088*[#   4]+0.088*[#   7]
          +0.088*[#   8]+0.072*[#   2]+0.072*[#   6]
    |psi|^2 = 0.857
==== e(   3) =     2.84711 eV ==== 
     psi = 0.139*[#   2]+0.139*[#   6]+0.099*[#   3]+0.099*[#   4]+0.099*[#   7]
          +0.099*[#   8]+0.054*[#   1]+0.054*[#   5]
    |psi|^2 = 0.780
==== e(   4) =     4.93429 eV ==== 
     psi = 0.247*[#   3]+0.247*[#   4]+0.247*[#   7]+0.247*[#   8]+0.088*[#   2]
          +0.088*[#   6]
    |psi|^2 = 1.163

 k =   0.2571297386 -0.2571297386  0.0000000000
==== e(   1) =    -4.80319 eV ==== 
     psi = 0.358*[#   1]+0.358*[#   5]+0.068*[#   3]+0.068*[#   4]+0.068*[#   7]
          +0.068*[#   8]+0.005*[#   2]+0.005*[#   6]
    |psi|^2 = 0.995
==== e(   2) =     1.94756 eV ==== 
     psi = 0.175*[#   1]+0.175*[#   5]+0.103*[#   3]+0.103*[#   4]+0.103*[#   7]
          +0.103*[#   8]+0.068*[#   2]+0.068*[#   6]
    |psi|^2 = 0.894
==== e(   3) =     3.33163 eV ==== 
     psi = 0.115*[#   2]+0.115*[#   6]+0.095*[#   3]+0.095*[#   4]+0.095*[#   7]
          +0.095*[#   8]+0.044*[#   1]+0.044*[#   5]
    |psi|^2 = 0.694
==== e(   4) =     5.34989 eV ==== 
     psi = 0.246*[#   3]+0.246*[#   4]+0.246*[#   7]+0.246*[#   8]+0.103*[#   2]
          +0.103*[#   6]
    |psi|^2 = 1.188

 k =   0.1928473040 -0.1928473040  0.0642824347
==== e(   1) =    -5.25120 eV ==== 
     psi = 0.388*[#   1]+0.388*[#   5]+0.051*[#   3]+0.051*[#   4]+0.051*[#   7]
          +0.051*[#   8]+0.007*[#   2]+0.007*[#   6]
    |psi|^2 = 0.996
==== e(   2) =     2.75157 eV ==== 
     psi = 0.140*[#   1]+0.140*[#   5]+0.119*[#   3]+0.119*[#   4]+0.119*[#   7]
          +0.119*[#   8]+0.051*[#   2]+0.051*[#   6]
    |psi|^2 = 0.861
==== e(   3) =     4.46304 eV ==== 
     psi = 0.114*[#   2]+0.114*[#   6]+0.090*[#   3]+0.090*[#   4]+0.090*[#   7]
          +0.090*[#   8]+0.034*[#   1]+0.034*[#   5]
    |psi|^2 = 0.657
==== e(   4) =     5.61711 eV ==== 
     psi = 0.245*[#   3]+0.245*[#   4]+0.245*[#   7]+0.245*[#   8]+0.119*[#   2]
          +0.119*[#   6]
    |psi|^2 = 1.217

 k =   0.1928473040 -0.1928473040  0.1928473040
==== e(   1) =    -4.98113 eV ==== 
     psi = 0.373*[#   1]+0.373*[#   5]+0.042*[#   2]+0.042*[#   3]+0.042*[#   4]
          +0.042*[#   6]+0.042*[#   7]+0.042*[#   8]
    |psi|^2 = 0.995
==== e(   2) =     1.68603 eV ==== 
     psi = 0.145*[#   1]+0.145*[#   5]+0.116*[#   3]+0.116*[#   4]+0.116*[#   7]
          +0.116*[#   8]+0.042*[#   2]+0.042*[#   6]
    |psi|^2 = 0.838
==== e(   3) =     5.20190 eV ==== 
     psi = 0.194*[#   4]+0.194*[#   8]+0.116*[#   2]+0.116*[#   6]+0.011*[#   3]
          +0.011*[#   7]
    |psi|^2 = 0.641
==== e(   4) =     5.20190 eV ==== 
     psi = 0.317*[#   3]+0.317*[#   7]+0.134*[#   4]+0.134*[#   8]+0.116*[#   2]
          +0.116*[#   6]
    |psi|^2 = 1.133

 k =   0.1285648693 -0.1285648693  0.2571297386
==== e(   1) =    -5.07771 eV ==== 
     psi = 0.375*[#   1]+0.375*[#   5]+0.084*[#   2]+0.084*[#   6]+0.020*[#   3]
          +0.020*[#   4]+0.020*[#   7]+0.020*[#   8]
    |psi|^2 = 0.995
==== e(   2) =     2.22496 eV ==== 
     psi = 0.148*[#   1]+0.148*[#   5]+0.110*[#   3]+0.110*[#   4]+0.110*[#   7]
          +0.110*[#   8]+0.020*[#   2]+0.020*[#   6]
    |psi|^2 = 0.774
==== e(   3) =     4.82085 eV ==== 
     psi = 0.246*[#   3]+0.246*[#   4]+0.246*[#   7]+0.246*[#   8]+0.126*[#   2]
          +0.126*[#   6]
    |psi|^2 = 1.237
==== e(   4) =     4.94317 eV ==== 
     psi = 0.110*[#   2]+0.110*[#   6]+0.086*[#   3]+0.086*[#   4]+0.086*[#   7]
          +0.086*[#   8]+0.047*[#   1]+0.047*[#   5]
    |psi|^2 = 0.659

 k =   0.0642824347 -0.0642824347  0.3214121733
==== e(   1) =    -4.96387 eV ==== 
     psi = 0.361*[#   1]+0.361*[#   5]+0.127*[#   2]+0.127*[#   6]+0.005*[#   3]
          +0.005*[#   4]+0.005*[#   7]+0.005*[#   8]
    |psi|^2 = 0.995
==== e(   2) =     2.54873 eV ==== 
     psi = 0.184*[#   1]+0.184*[#   5]+0.050*[#   3]+0.050*[#   4]+0.050*[#   7]
          +0.050*[#   8]+0.005*[#   2]+0.005*[#   6]
    |psi|^2 = 0.579
==== e(   3) =     4.27952 eV ==== 
     psi = 0.208*[#   2]+0.208*[#   6]+0.173*[#   3]+0.173*[#   4]+0.173*[#   7]
          +0.173*[#   8]+0.034*[#   1]+0.034*[#   5]
    |psi|^2 = 1.176
==== e(   4) =     4.36071 eV ==== 
     psi = 0.247*[#   3]+0.247*[#   4]+0.247*[#   7]+0.247*[#   8]+0.050*[#   2]
          +0.050*[#   6]
    |psi|^2 = 1.089

 k =   0.0000000000  0.0000000000  0.3856946079
==== e(   1) =    -4.64281 eV ==== 
     psi = 0.340*[#   1]+0.340*[#   5]+0.158*[#   2]+0.158*[#   6]
    |psi|^2 = 0.995
==== e(   2) =     2.09056 eV ==== 
     psi = 0.224*[#   1]+0.224*[#   5]
    |psi|^2 = 0.448
==== e(   3) =     3.98198 eV ==== 
     psi = 0.490*[#   4]+0.483*[#   7]+0.270*[#   2]+0.270*[#   6]+0.012*[#   8]
          +0.006*[#   3]
    |psi|^2 = 1.531
==== e(   4) =     3.98198 eV ==== 
     psi = 0.490*[#   3]+0.483*[#   8]+0.012*[#   7]+0.006*[#   4]
    |psi|^2 = 0.991

 k =  -0.0642824347  0.0642824347  0.4499770426
==== e(   1) =    -4.12904 eV ==== 
     psi = 0.321*[#   1]+0.321*[#   5]+0.170*[#   2]+0.170*[#   6]+0.003*[#   3]
          +0.003*[#   4]+0.003*[#   7]+0.003*[#   8]
    |psi|^2 = 0.995
==== e(   2) =     1.13689 eV ==== 
     psi = 0.234*[#   1]+0.234*[#   5]+0.019*[#   3]+0.019*[#   4]+0.019*[#   7]
          +0.019*[#   8]+0.003*[#   2]+0.003*[#   6]
    |psi|^2 = 0.549
==== e(   3) =     3.43477 eV ==== 
     psi = 0.223*[#   2]+0.223*[#   6]+0.208*[#   3]+0.208*[#   4]+0.208*[#   7]
          +0.208*[#   8]+0.018*[#   1]+0.018*[#   5]
    |psi|^2 = 1.313
==== e(   4) =     3.75043 eV ==== 
     psi = 0.248*[#   3]+0.248*[#   4]+0.248*[#   7]+0.248*[#   8]+0.019*[#   2]
          +0.019*[#   6]
    |psi|^2 = 1.030

 k =  -0.1285648693  0.1285648693  0.5142594772
==== e(   1) =    -3.46818 eV ==== 
     psi = 0.314*[#   1]+0.314*[#   5]+0.165*[#   2]+0.165*[#   6]+0.009*[#   3]
          +0.009*[#   4]+0.009*[#   7]+0.009*[#   8]
    |psi|^2 = 0.994
==== e(   2) =     0.10657 eV ==== 
     psi = 0.234*[#   1]+0.234*[#   5]+0.048*[#   3]+0.048*[#   4]+0.048*[#   7]
          +0.048*[#   8]+0.009*[#   2]+0.009*[#   6]
    |psi|^2 = 0.678
==== e(   3) =     2.69639 eV ==== 
     psi = 0.166*[#   2]+0.166*[#   6]+0.163*[#   3]+0.163*[#   4]+0.163*[#   7]
          +0.163*[#   8]+0.030*[#   1]+0.030*[#   5]
    |psi|^2 = 1.046
==== e(   4) =     3.68961 eV ==== 
     psi = 0.248*[#   3]+0.248*[#   4]+0.248*[#   7]+0.248*[#   8]+0.048*[#   2]
          +0.048*[#   6]
    |psi|^2 = 1.088

 k =   0.5142594772 -0.5142594772 -0.1285648693
==== e(   1) =    -2.85030 eV ==== 
     psi = 0.326*[#   1]+0.326*[#   5]+0.131*[#   2]+0.131*[#   6]+0.020*[#   3]
          +0.020*[#   4]+0.020*[#   7]+0.020*[#   8]
    |psi|^2 = 0.995
==== e(   2) =    -0.69949 eV ==== 
     psi = 0.218*[#   1]+0.218*[#   5]+0.067*[#   3]+0.067*[#   4]+0.067*[#   7]
          +0.067*[#   8]+0.020*[#   2]+0.020*[#   6]
    |psi|^2 = 0.746
==== e(   3) =     2.11749 eV ==== 
     psi = 0.143*[#   2]+0.143*[#   6]+0.139*[#   3]+0.139*[#   4]+0.139*[#   7]
          +0.139*[#   8]+0.032*[#   1]+0.032*[#   5]
    |psi|^2 = 0.905
==== e(   4) =     3.80310 eV ==== 
     psi = 0.248*[#   3]+0.248*[#   4]+0.248*[#   7]+0.248*[#   8]+0.067*[#   2]
          +0.067*[#   6]
    |psi|^2 = 1.127

 k =   0.4499770426 -0.4499770426 -0.0642824347
==== e(   1) =    -2.90567 eV ==== 
     psi = 0.332*[#   1]+0.332*[#   5]+0.062*[#   2]+0.062*[#   6]+0.052*[#   3]
          +0.052*[#   4]+0.052*[#   7]+0.052*[#   8]
    |psi|^2 = 0.996
==== e(   2) =    -0.62028 eV ==== 
     psi = 0.213*[#   1]+0.213*[#   5]+0.059*[#   3]+0.059*[#   4]+0.059*[#   7]
          +0.059*[#   8]+0.052*[#   2]+0.052*[#   6]
    |psi|^2 = 0.768
==== e(   3) =     1.82880 eV ==== 
     psi = 0.164*[#   2]+0.164*[#   6]+0.127*[#   3]+0.127*[#   4]+0.127*[#   7]
          +0.127*[#   8]+0.028*[#   1]+0.028*[#   5]
    |psi|^2 = 0.893
==== e(   4) =     4.07894 eV ==== 
     psi = 0.248*[#   3]+0.248*[#   4]+0.248*[#   7]+0.248*[#   8]+0.059*[#   2]
          +0.059*[#   6]
    |psi|^2 = 1.110

 k =   0.3856946079 -0.3856946079  0.0000000000
==== e(   1) =    -3.54323 eV ==== 
     psi = 0.328*[#   1]+0.328*[#   5]+0.071*[#   3]+0.071*[#   4]+0.071*[#   7]
          +0.071*[#   8]+0.028*[#   2]+0.028*[#   6]
    |psi|^2 = 0.995
==== e(   2) =     0.14170 eV ==== 
     psi = 0.216*[#   1]+0.216*[#   5]+0.071*[#   2]+0.071*[#   6]+0.064*[#   3]
          +0.064*[#   4]+0.064*[#   7]+0.064*[#   8]
    |psi|^2 = 0.828
==== e(   3) =     1.98956 eV ==== 
     psi = 0.153*[#   2]+0.153*[#   6]+0.115*[#   3]+0.115*[#   4]+0.115*[#   7]
          +0.115*[#   8]+0.031*[#   1]+0.031*[#   5]
    |psi|^2 = 0.829
==== e(   4) =     4.48312 eV ==== 
     psi = 0.247*[#   3]+0.247*[#   4]+0.247*[#   7]+0.247*[#   8]+0.064*[#   2]
          +0.064*[#   6]
    |psi|^2 = 1.117

 k =   0.3214121733 -0.3214121733  0.0642824347
==== e(   1) =    -4.18553 eV ==== 
     psi = 0.339*[#   1]+0.339*[#   5]+0.072*[#   3]+0.072*[#   4]+0.072*[#   7]
          +0.072*[#   8]+0.014*[#   2]+0.014*[#   6]
    |psi|^2 = 0.995
==== e(   2) =     0.75295 eV ==== 
     psi = 0.181*[#   1]+0.181*[#   5]+0.088*[#   3]+0.088*[#   4]+0.088*[#   7]
          +0.088*[#   8]+0.072*[#   2]+0.072*[#   6]
    |psi|^2 = 0.857
==== e(   3) =     2.84711 eV ==== 
     psi = 0.139*[#   2]+0.139*[#   6]+0.099*[#   3]+0.099*[#   4]+0.099*[#   7]
          +0.099*[#   8]+0.054*[#   1]+0.054*[#   5]
    |psi|^2 = 0.780
==== e(   4) =     4.93429 eV ==== 
     psi = 0.247*[#   3]+0.247*[#   4]+0.247*[#   7]+0.247*[#   8]+0.088*[#   2]
          +0.088*[#   6]
    |psi|^2 = 1.163

 k =   0.2571297386 -0.2571297386  0.1285648693
==== e(   1) =    -4.67868 eV ==== 
     psi = 0.358*[#   1]+0.358*[#   5]+0.061*[#   3]+0.061*[#   4]+0.061*[#   7]
          +0.061*[#   8]+0.017*[#   2]+0.017*[#   6]
    |psi|^2 = 0.995
==== e(   2) =     1.19752 eV ==== 
     psi = 0.155*[#   1]+0.155*[#   5]+0.106*[#   3]+0.106*[#   4]+0.106*[#   7]
          +0.106*[#   8]+0.061*[#   2]+0.061*[#   6]
    |psi|^2 = 0.857
==== e(   3) =     4.16580 eV ==== 
     psi = 0.127*[#   2]+0.127*[#   6]+0.093*[#   3]+0.093*[#   4]+0.093*[#   7]
          +0.093*[#   8]+0.043*[#   1]+0.043*[#   5]
    |psi|^2 = 0.713
==== e(   4) =     5.25206 eV ==== 
     psi = 0.246*[#   3]+0.246*[#   4]+0.246*[#   7]+0.246*[#   8]+0.106*[#   2]
          +0.106*[#   6]
    |psi|^2 = 1.197

 k =   0.2571297386 -0.2571297386  0.2571297386
==== e(   1) =    -4.31929 eV ==== 
     psi = 0.358*[#   1]+0.358*[#   5]+0.047*[#   2]+0.047*[#   3]+0.047*[#   4]
          +0.047*[#   6]+0.047*[#   7]+0.047*[#   8]
    |psi|^2 = 0.995
==== e(   2) =     0.22752 eV ==== 
     psi = 0.148*[#   1]+0.148*[#   5]+0.115*[#   3]+0.115*[#   4]+0.115*[#   7]
          +0.115*[#   8]+0.047*[#   2]+0.047*[#   6]
    |psi|^2 = 0.851
==== e(   3) =     4.97102 eV ==== 
     psi = 0.195*[#   4]+0.195*[#   8]+0.115*[#   2]+0.115*[#   6]+0.010*[#   3]
          +0.010*[#   7]
    |psi|^2 = 0.641
==== e(   4) =     4.97102 eV ==== 
     psi = 0.319*[#   3]+0.319*[#   7]+0.133*[#   4]+0.133*[#   8]+0.115*[#   2]
          +0.115*[#   6]
    |psi|^2 = 1.135

 k =   0.1928473040 -0.1928473040  0.3214121733
==== e(   1) =    -4.45480 eV ==== 
     psi = 0.352*[#   1]+0.352*[#   5]+0.087*[#   2]+0.087*[#   6]+0.029*[#   3]
          +0.029*[#   4]+0.029*[#   7]+0.029*[#   8]
    |psi|^2 = 0.995
==== e(   2) =     0.71373 eV ==== 
     psi = 0.156*[#   1]+0.156*[#   5]+0.115*[#   3]+0.115*[#   4]+0.115*[#   7]
          +0.115*[#   8]+0.029*[#   2]+0.029*[#   6]
    |psi|^2 = 0.832
==== e(   3) =     4.55957 eV ==== 
     psi = 0.107*[#   2]+0.107*[#   6]+0.077*[#   3]+0.077*[#   4]+0.077*[#   7]
          +0.077*[#   8]+0.053*[#   1]+0.053*[#   5]
    |psi|^2 = 0.630
==== e(   4) =     4.63497 eV ==== 
     psi = 0.247*[#   3]+0.247*[#   4]+0.247*[#   7]+0.247*[#   8]+0.115*[#   2]
          +0.115*[#   6]
    |psi|^2 = 1.217

 k =   0.1285648693 -0.1285648693  0.3856946079
==== e(   1) =    -4.39218 eV ==== 
     psi = 0.338*[#   1]+0.338*[#   5]+0.133*[#   2]+0.133*[#   6]+0.013*[#   3]
          +0.013*[#   4]+0.013*[#   7]+0.013*[#   8]
    |psi|^2 = 0.995
==== e(   2) =     1.17321 eV ==== 
     psi = 0.186*[#   1]+0.186*[#   5]+0.085*[#   3]+0.085*[#   4]+0.085*[#   7]
          +0.085*[#   8]+0.013*[#   2]+0.013*[#   6]
    |psi|^2 = 0.738
==== e(   3) =     3.74034 eV ==== 
     psi = 0.139*[#   2]+0.139*[#   6]+0.119*[#   3]+0.119*[#   4]+0.119*[#   7]
          +0.119*[#   8]+0.060*[#   1]+0.060*[#   5]
    |psi|^2 = 0.872
==== e(   4) =     4.16452 eV ==== 
     psi = 0.247*[#   3]+0.247*[#   4]+0.247*[#   7]+0.247*[#   8]+0.085*[#   2]
          +0.085*[#   6]
    |psi|^2 = 1.160

 k =   0.0642824347 -0.0642824347  0.4499770426
==== e(   1) =    -4.12904 eV ==== 
     psi = 0.321*[#   1]+0.321*[#   5]+0.170*[#   2]+0.170*[#   6]+0.003*[#   3]
          +0.003*[#   4]+0.003*[#   7]+0.003*[#   8]
    |psi|^2 = 0.995
==== e(   2) =     1.13689 eV ==== 
     psi = 0.234*[#   1]+0.234*[#   5]+0.019*[#   3]+0.019*[#   4]+0.019*[#   7]
          +0.019*[#   8]+0.003*[#   2]+0.003*[#   6]
    |psi|^2 = 0.549
==== e(   3) =     3.43477 eV ==== 
     psi = 0.223*[#   2]+0.223*[#   6]+0.208*[#   3]+0.208*[#   4]+0.208*[#   7]
          +0.208*[#   8]+0.018*[#   1]+0.018*[#   5]
    |psi|^2 = 1.313
==== e(   4) =     3.75043 eV ==== 
     psi = 0.248*[#   3]+0.248*[#   4]+0.248*[#   7]+0.248*[#   8]+0.019*[#   2]
          +0.019*[#   6]
    |psi|^2 = 1.030

 k =   0.0000000000  0.0000000000  0.5142594772
==== e(   1) =    -3.67279 eV ==== 
     psi = 0.306*[#   1]+0.306*[#   5]+0.191*[#   2]+0.191*[#   6]
    |psi|^2 = 0.994
==== e(   2) =     0.47629 eV ==== 
     psi = 0.250*[#   1]+0.250*[#   5]
    |psi|^2 = 0.501
==== e(   3) =     3.47513 eV ==== 
     psi = 0.482*[#   4]+0.481*[#   7]+0.245*[#   2]+0.245*[#   6]+0.016*[#   8]
          +0.014*[#   3]
    |psi|^2 = 1.484
==== e(   4) =     3.47513 eV ==== 
     psi = 0.482*[#   3]+0.481*[#   8]+0.016*[#   7]+0.014*[#   4]
    |psi|^2 = 0.993

 k =  -0.0642824347  0.0642824347  0.5785419119
==== e(   1) =    -3.05037 eV ==== 
     psi = 0.297*[#   1]+0.297*[#   5]+0.195*[#   2]+0.195*[#   6]+0.002*[#   3]
          +0.002*[#   4]+0.002*[#   7]+0.002*[#   8]
    |psi|^2 = 0.994
==== e(   2) =    -0.33700 eV ==== 
     psi = 0.262*[#   1]+0.262*[#   5]+0.007*[#   3]+0.007*[#   4]+0.007*[#   7]
          +0.007*[#   8]+0.002*[#   2]+0.002*[#   6]
    |psi|^2 = 0.554
==== e(   3) =     2.92825 eV ==== 
     psi = 0.222*[#   3]+0.222*[#   4]+0.222*[#   7]+0.222*[#   8]+0.221*[#   2]
          +0.221*[#   6]+0.009*[#   1]+0.009*[#   5]
    |psi|^2 = 1.348
==== e(   4) =     3.37012 eV ==== 
     psi = 0.248*[#   3]+0.248*[#   4]+0.248*[#   7]+0.248*[#   8]+0.007*[#   2]
          +0.007*[#   6]
    |psi|^2 = 1.007

 k =   0.5785419119 -0.5785419119 -0.0642824347
==== e(   1) =    -2.37372 eV ==== 
     psi = 0.300*[#   1]+0.300*[#   5]+0.177*[#   2]+0.177*[#   6]+0.010*[#   3]
          +0.010*[#   4]+0.010*[#   7]+0.010*[#   8]
    |psi|^2 = 0.994
==== e(   2) =    -1.05362 eV ==== 
     psi = 0.267*[#   1]+0.267*[#   5]+0.020*[#   3]+0.020*[#   4]+0.020*[#   7]
          +0.020*[#   8]+0.010*[#   2]+0.010*[#   6]
    |psi|^2 = 0.631
==== e(   3) =     2.13512 eV ==== 
     psi = 0.193*[#   3]+0.193*[#   4]+0.193*[#   7]+0.193*[#   8]+0.191*[#   2]
          +0.191*[#   6]+0.006*[#   1]+0.006*[#   5]
    |psi|^2 = 1.165
==== e(   4) =     3.44377 eV ==== 
     psi = 0.248*[#   3]+0.248*[#   4]+0.248*[#   7]+0.248*[#   8]+0.020*[#   2]
          +0.020*[#   6]
    |psi|^2 = 1.033

 k =   0.5142594772 -0.5142594772  0.0000000000
==== e(   1) =    -2.30544 eV ==== 
     psi = 0.322*[#   1]+0.322*[#   5]+0.109*[#   2]+0.109*[#   6]+0.033*[#   3]
          +0.033*[#   4]+0.033*[#   7]+0.033*[#   8]
    |psi|^2 = 0.995
==== e(   2) =    -1.08827 eV ==== 
     psi = 0.249*[#   1]+0.249*[#   5]+0.033*[#   2]+0.033*[#   6]+0.029*[#   3]
          +0.029*[#   4]+0.029*[#   7]+0.029*[#   8]
    |psi|^2 = 0.679
==== e(   3) =     1.64240 eV ==== 
     psi = 0.190*[#   2]+0.190*[#   6]+0.166*[#   3]+0.166*[#   4]+0.166*[#   7]
          +0.166*[#   8]
    |psi|^2 = 1.047
==== e(   4) =     3.68904 eV ==== 
     psi = 0.248*[#   3]+0.248*[#   4]+0.248*[#   7]+0.248*[#   8]+0.029*[#   2]
          +0.029*[#   6]
    |psi|^2 = 1.050

 k =   0.4499770426 -0.4499770426  0.0642824347
==== e(   1) =    -2.90567 eV ==== 
     psi = 0.332*[#   1]+0.332*[#   5]+0.062*[#   2]+0.062*[#   6]+0.052*[#   3]
          +0.052*[#   4]+0.052*[#   7]+0.052*[#   8]
    |psi|^2 = 0.996
==== e(   2) =    -0.62028 eV ==== 
     psi = 0.213*[#   1]+0.213*[#   5]+0.059*[#   3]+0.059*[#   4]+0.059*[#   7]
          +0.059*[#   8]+0.052*[#   2]+0.052*[#   6]
    |psi|^2 = 0.768
==== e(   3) =     1.82880 eV ==== 
     psi = 0.164*[#   2]+0.164*[#   6]+0.127*[#   3]+0.127*[#   4]+0.127*[#   7]
          +0.127*[#   8]+0.028*[#   1]+0.028*[#   5]
    |psi|^2 = 0.893
==== e(   4) =     4.07894 eV ==== 
     psi = 0.248*[#   3]+0.248*[#   4]+0.248*[#   7]+0.248*[#   8]+0.059*[#   2]
          +0.059*[#   6]
    |psi|^2 = 1.110

 k =   0.3856946079 -0.3856946079  0.1285648693
==== e(   1) =    -3.51088 eV ==== 
     psi = 0.343*[#   1]+0.343*[#   5]+0.061*[#   3]+0.061*[#   4]+0.061*[#   7]
          +0.061*[#   8]+0.033*[#   2]+0.033*[#   6]
    |psi|^2 = 0.996
==== e(   2) =    -0.36918 eV ==== 
     psi = 0.167*[#   1]+0.167*[#   5]+0.090*[#   3]+0.090*[#   4]+0.090*[#   7]
          +0.090*[#   8]+0.061*[#   2]+0.061*[#   6]
    |psi|^2 = 0.815
==== e(   3) =     2.76730 eV ==== 
     psi = 0.148*[#   2]+0.148*[#   6]+0.097*[#   3]+0.097*[#   4]+0.097*[#   7]
          +0.097*[#   8]+0.063*[#   1]+0.063*[#   5]
    |psi|^2 = 0.810
==== e(   4) =     4.54524 eV ==== 
     psi = 0.247*[#   3]+0.247*[#   4]+0.247*[#   7]+0.247*[#   8]+0.090*[#   2]
          +0.090*[#   6]
    |psi|^2 = 1.169

 k =   0.3214121733 -0.3214121733  0.1928473040
==== e(   1) =    -3.99691 eV ==== 
     psi = 0.354*[#   1]+0.354*[#   5]+0.059*[#   3]+0.059*[#   4]+0.059*[#   7]
          +0.059*[#   8]+0.026*[#   2]+0.026*[#   6]
    |psi|^2 = 0.996
==== e(   2) =    -0.13430 eV ==== 
     psi = 0.149*[#   1]+0.149*[#   5]+0.106*[#   3]+0.106*[#   4]+0.106*[#   7]
          +0.106*[#   8]+0.059*[#   2]+0.059*[#   6]
    |psi|^2 = 0.839
==== e(   3) =     4.04504 eV ==== 
     psi = 0.134*[#   2]+0.134*[#   6]+0.090*[#   3]+0.090*[#   4]+0.090*[#   7]
          +0.090*[#   8]+0.048*[#   1]+0.048*[#   5]
    |psi|^2 = 0.722
==== e(   4) =     4.92713 eV ==== 
     psi = 0.247*[#   3]+0.247*[#   4]+0.247*[#   7]+0.247*[#   8]+0.106*[#   2]
          +0.106*[#   6]
    |psi|^2 = 1.199

 k =   0.3214121733 -0.3214121733  0.3214121733
==== e(   1) =    -3.70513 eV ==== 
     psi = 0.375*[#   1]+0.375*[#   5]+0.041*[#   2]+0.041*[#   3]+0.041*[#   4]
          +0.041*[#   6]+0.041*[#   7]+0.041*[#   8]
    |psi|^2 = 0.996
==== e(   2) =    -0.79232 eV ==== 
     psi = 0.125*[#   1]+0.125*[#   5]+0.123*[#   3]+0.123*[#   4]+0.123*[#   7]
          +0.123*[#   8]+0.041*[#   2]+0.041*[#   6]
    |psi|^2 = 0.823
==== e(   3) =     4.85351 eV ==== 
     psi = 0.196*[#   4]+0.196*[#   8]+0.123*[#   2]+0.123*[#   6]+0.009*[#   3]
          +0.009*[#   7]
    |psi|^2 = 0.656
==== e(   4) =     4.85351 eV ==== 
     psi = 0.320*[#   3]+0.320*[#   7]+0.133*[#   4]+0.133*[#   8]+0.123*[#   2]
          +0.123*[#   6]
    |psi|^2 = 1.153

 k =   0.2571297386 -0.2571297386  0.3856946079
==== e(   1) =    -3.78207 eV ==== 
     psi = 0.359*[#   1]+0.359*[#   5]+0.074*[#   2]+0.074*[#   6]+0.032*[#   3]
          +0.032*[#   4]+0.032*[#   7]+0.032*[#   8]
    |psi|^2 = 0.996
==== e(   2) =    -0.48332 eV ==== 
     psi = 0.142*[#   1]+0.142*[#   5]+0.122*[#   3]+0.122*[#   4]+0.122*[#   7]
          +0.122*[#   8]+0.032*[#   2]+0.032*[#   6]
    |psi|^2 = 0.835
==== e(   3) =     4.26062 eV ==== 
     psi = 0.109*[#   2]+0.109*[#   6]+0.079*[#   3]+0.079*[#   4]+0.079*[#   7]
          +0.079*[#   8]+0.054*[#   1]+0.054*[#   5]
    |psi|^2 = 0.640
==== e(   4) =     4.59588 eV ==== 
     psi = 0.247*[#   3]+0.247*[#   4]+0.247*[#   7]+0.247*[#   8]+0.122*[#   2]
          +0.122*[#   6]
    |psi|^2 = 1.232

 k =   0.1928473040 -0.1928473040  0.4499770426
==== e(   1) =    -3.70988 eV ==== 
     psi = 0.336*[#   1]+0.336*[#   5]+0.122*[#   2]+0.122*[#   6]+0.020*[#   3]
          +0.020*[#   4]+0.020*[#   7]+0.020*[#   8]
    |psi|^2 = 0.995
==== e(   2) =    -0.06890 eV ==== 
     psi = 0.177*[#   1]+0.177*[#   5]+0.103*[#   3]+0.103*[#   4]+0.103*[#   7]
          +0.103*[#   8]+0.020*[#   2]+0.020*[#   6]
    |psi|^2 = 0.807
==== e(   3) =     3.26018 eV ==== 
     psi = 0.112*[#   2]+0.112*[#   6]+0.100*[#   3]+0.100*[#   4]+0.100*[#   7]
          +0.100*[#   8]+0.067*[#   1]+0.067*[#   5]
    |psi|^2 = 0.757
==== e(   4) =     4.13319 eV ==== 
     psi = 0.248*[#   3]+0.248*[#   4]+0.248*[#   7]+0.248*[#   8]+0.103*[#   2]
          +0.103*[#   6]
    |psi|^2 = 1.197

 k =   0.1285648693 -0.1285648693  0.5142594772
==== e(   1) =    -3.46818 eV ==== 
     psi = 0.314*[#   1]+0.314*[#   5]+0.165*[#   2]+0.165*[#   6]+0.009*[#   3]
          +0.009*[#   4]+0.009*[#   7]+0.009*[#   8]
    |psi|^2 = 0.994
==== e(   2) =     0.10657 eV ==== 
     psi = 0.234*[#   1]+0.234*[#   5]+0.048*[#   3]+0.048*[#   4]+0.048*[#   7]
          +0.048*[#   8]+0.009*[#   2]+0.009*[#   6]
    |psi|^2 = 0.678
==== e(   3) =     2.69639 eV ==== 
     psi = 0.166*[#   2]+0.166*[#   6]+0.163*[#   3]+0.163*[#   4]+0.163*[#   7]
          +0.163*[#   8]+0.030*[#   1]+0.030*[#   5]
    |psi|^2 = 1.046
==== e(   4) =     3.68961 eV ==== 
     psi = 0.248*[#   3]+0.248*[#   4]+0.248*[#   7]+0.248*[#   8]+0.048*[#   2]
          +0.048*[#   6]
    |psi|^2 = 1.088

 k =   0.0642824347 -0.0642824347  0.5785419119
==== e(   1) =    -3.05037 eV ==== 
     psi = 0.297*[#   1]+0.297*[#   5]+0.195*[#   2]+0.195*[#   6]+0.002*[#   3]
          +0.002*[#   4]+0.002*[#   7]+0.002*[#   8]
    |psi|^2 = 0.994
==== e(   2) =    -0.33700 eV ==== 
     psi = 0.262*[#   1]+0.262*[#   5]+0.007*[#   3]+0.007*[#   4]+0.007*[#   7]
          +0.007*[#   8]+0.002*[#   2]+0.002*[#   6]
    |psi|^2 = 0.554
==== e(   3) =     2.92825 eV ==== 
     psi = 0.222*[#   3]+0.222*[#   4]+0.222*[#   7]+0.222*[#   8]+0.221*[#   2]
          +0.221*[#   6]+0.009*[#   1]+0.009*[#   5]
    |psi|^2 = 1.348
==== e(   4) =     3.37012 eV ==== 
     psi = 0.248*[#   3]+0.248*[#   4]+0.248*[#   7]+0.248*[#   8]+0.007*[#   2]
          +0.007*[#   6]
    |psi|^2 = 1.007

 k =   0.0000000000  0.0000000000  0.6428243465
==== e(   1) =    -2.46699 eV ==== 
     psi = 0.286*[#   1]+0.286*[#   5]+0.211*[#   2]+0.211*[#   6]
    |psi|^2 = 0.993
==== e(   2) =    -1.06530 eV ==== 
     psi = 0.269*[#   1]+0.269*[#   5]
    |psi|^2 = 0.538
==== e(   3) =     3.21616 eV ==== 
     psi = 0.465*[#   4]+0.465*[#   7]+0.227*[#   2]+0.227*[#   6]+0.032*[#   8]
          +0.032*[#   3]
    |psi|^2 = 1.449
==== e(   4) =     3.21616 eV ==== 
     psi = 0.465*[#   3]+0.465*[#   8]+0.032*[#   7]+0.032*[#   4]
    |psi|^2 = 0.994

 k =   0.6428243465 -0.6428243465 -0.0000000000
==== e(   1) =    -1.82002 eV ==== 
     psi = 0.285*[#   1]+0.285*[#   5]+0.207*[#   2]+0.207*[#   6]+0.002*[#   3]
          +0.002*[#   4]+0.002*[#   7]+0.002*[#   8]
    |psi|^2 = 0.993
==== e(   2) =    -1.70957 eV ==== 
     psi = 0.273*[#   1]+0.273*[#   5]+0.004*[#   3]+0.004*[#   4]+0.004*[#   7]
          +0.004*[#   8]+0.002*[#   2]+0.002*[#   6]
    |psi|^2 = 0.566
==== e(   3) =     2.76160 eV ==== 
     psi = 0.225*[#   3]+0.225*[#   4]+0.225*[#   7]+0.225*[#   8]+0.216*[#   2]
          +0.216*[#   6]+0.007*[#   1]+0.007*[#   5]
    |psi|^2 = 1.345
==== e(   4) =     3.24148 eV ==== 
     psi = 0.249*[#   3]+0.249*[#   4]+0.249*[#   7]+0.249*[#   8]+0.004*[#   2]
          +0.004*[#   6]
    |psi|^2 = 1.002

 k =   0.5785419119 -0.5785419119  0.0642824347
==== e(   1) =    -2.37372 eV ==== 
     psi = 0.300*[#   1]+0.300*[#   5]+0.177*[#   2]+0.177*[#   6]+0.010*[#   3]
          +0.010*[#   4]+0.010*[#   7]+0.010*[#   8]
    |psi|^2 = 0.994
==== e(   2) =    -1.05362 eV ==== 
     psi = 0.267*[#   1]+0.267*[#   5]+0.020*[#   3]+0.020*[#   4]+0.020*[#   7]
          +0.020*[#   8]+0.010*[#   2]+0.010*[#   6]
    |psi|^2 = 0.631
==== e(   3) =     2.13512 eV ==== 
     psi = 0.193*[#   3]+0.193*[#   4]+0.193*[#   7]+0.193*[#   8]+0.191*[#   2]
          +0.191*[#   6]+0.006*[#   1]+0.006*[#   5]
    |psi|^2 = 1.165
==== e(   4) =     3.44377 eV ==== 
     psi = 0.248*[#   3]+0.248*[#   4]+0.248*[#   7]+0.248*[#   8]+0.020*[#   2]
          +0.020*[#   6]
    |psi|^2 = 1.033

 k =   0.5142594772 -0.5142594772  0.1285648693
==== e(   1) =    -2.85030 eV ==== 
     psi = 0.326*[#   1]+0.326*[#   5]+0.131*[#   2]+0.131*[#   6]+0.020*[#   3]
          +0.020*[#   4]+0.020*[#   7]+0.020*[#   8]
    |psi|^2 = 0.995
==== e(   2) =    -0.69949 eV ==== 
     psi = 0.218*[#   1]+0.218*[#   5]+0.067*[#   3]+0.067*[#   4]+0.067*[#   7]
          +0.067*[#   8]+0.020*[#   2]+0.020*[#   6]
    |psi|^2 = 0.746
==== e(   3) =     2.11749 eV ==== 
     psi = 0.143*[#   2]+0.143*[#   6]+0.139*[#   3]+0.139*[#   4]+0.139*[#   7]
          +0.139*[#   8]+0.032*[#   1]+0.032*[#   5]
    |psi|^2 = 0.905
==== e(   4) =     3.80310 eV ==== 
     psi = 0.248*[#   3]+0.248*[#   4]+0.248*[#   7]+0.248*[#   8]+0.067*[#   2]
          +0.067*[#   6]
    |psi|^2 = 1.127

 k =   0.4499770426 -0.4499770426  0.1928473040
==== e(   1) =    -3.22331 eV ==== 
     psi = 0.354*[#   1]+0.354*[#   5]+0.079*[#   2]+0.079*[#   6]+0.032*[#   3]
          +0.032*[#   4]+0.032*[#   7]+0.032*[#   8]
    |psi|^2 = 0.996
==== e(   2) =    -0.78349 eV ==== 
     psi = 0.153*[#   1]+0.153*[#   5]+0.107*[#   3]+0.107*[#   4]+0.107*[#   7]
          +0.107*[#   8]+0.032*[#   2]+0.032*[#   6]
    |psi|^2 = 0.801
==== e(   3) =     2.92241 eV ==== 
     psi = 0.127*[#   2]+0.127*[#   6]+0.096*[#   3]+0.096*[#   4]+0.096*[#   7]
          +0.096*[#   8]+0.067*[#   1]+0.067*[#   5]
    |psi|^2 = 0.770
==== e(   4) =     4.26558 eV ==== 
     psi = 0.248*[#   3]+0.248*[#   4]+0.248*[#   7]+0.248*[#   8]+0.107*[#   2]
          +0.107*[#   6]
    |psi|^2 = 1.205

 k =   0.3856946079 -0.3856946079  0.2571297386
==== e(   1) =    -3.50976 eV ==== 
     psi = 0.374*[#   1]+0.374*[#   5]+0.042*[#   2]+0.042*[#   6]+0.041*[#   3]
          +0.041*[#   4]+0.041*[#   7]+0.041*[#   8]
    |psi|^2 = 0.997
==== e(   2) =    -0.88752 eV ==== 
     psi = 0.125*[#   1]+0.125*[#   5]+0.119*[#   3]+0.119*[#   4]+0.119*[#   7]
          +0.119*[#   8]+0.041*[#   2]+0.041*[#   6]
    |psi|^2 = 0.810
==== e(   3) =     4.08208 eV ==== 
     psi = 0.130*[#   2]+0.130*[#   6]+0.084*[#   3]+0.084*[#   4]+0.084*[#   7]
          +0.084*[#   8]+0.052*[#   1]+0.052*[#   5]
    |psi|^2 = 0.700
==== e(   4) =     4.69870 eV ==== 
     psi = 0.247*[#   3]+0.247*[#   4]+0.247*[#   7]+0.247*[#   8]+0.119*[#   2]
          +0.119*[#   6]
    |psi|^2 = 1.227

 k =  -0.3214121733  0.3214121733 -0.3214121733
==== e(   1) =    -3.70513 eV ==== 
     psi = 0.375*[#   1]+0.375*[#   5]+0.041*[#   2]+0.041*[#   3]+0.041*[#   4]
          +0.041*[#   6]+0.041*[#   7]+0.041*[#   8]
    |psi|^2 = 0.996
==== e(   2) =    -0.79232 eV ==== 
     psi = 0.125*[#   1]+0.125*[#   5]+0.123*[#   3]+0.123*[#   4]+0.123*[#   7]
          +0.123*[#   8]+0.041*[#   2]+0.041*[#   6]
    |psi|^2 = 0.823
==== e(   3) =     4.85351 eV ==== 
     psi = 0.196*[#   4]+0.196*[#   8]+0.123*[#   2]+0.123*[#   6]+0.009*[#   3]
          +0.009*[#   7]
    |psi|^2 = 0.656
==== e(   4) =     4.85351 eV ==== 
     psi = 0.320*[#   3]+0.320*[#   7]+0.133*[#   4]+0.133*[#   8]+0.123*[#   2]
          +0.123*[#   6]
    |psi|^2 = 1.153

 k =  -0.3856946079  0.3856946079 -0.2571297386
==== e(   1) =    -3.50976 eV ==== 
     psi = 0.374*[#   1]+0.374*[#   5]+0.042*[#   2]+0.042*[#   6]+0.041*[#   3]
          +0.041*[#   4]+0.041*[#   7]+0.041*[#   8]
    |psi|^2 = 0.997
==== e(   2) =    -0.88752 eV ==== 
     psi = 0.125*[#   1]+0.125*[#   5]+0.119*[#   3]+0.119*[#   4]+0.119*[#   7]
          +0.119*[#   8]+0.041*[#   2]+0.041*[#   6]
    |psi|^2 = 0.810
==== e(   3) =     4.08208 eV ==== 
     psi = 0.130*[#   2]+0.130*[#   6]+0.084*[#   3]+0.084*[#   4]+0.084*[#   7]
          +0.084*[#   8]+0.052*[#   1]+0.052*[#   5]
    |psi|^2 = 0.700
==== e(   4) =     4.69870 eV ==== 
     psi = 0.247*[#   3]+0.247*[#   4]+0.247*[#   7]+0.247*[#   8]+0.119*[#   2]
          +0.119*[#   6]
    |psi|^2 = 1.227

 k =  -0.4499770426  0.4499770426 -0.1928473040
==== e(   1) =    -3.22331 eV ==== 
     psi = 0.354*[#   1]+0.354*[#   5]+0.079*[#   2]+0.079*[#   6]+0.032*[#   3]
          +0.032*[#   4]+0.032*[#   7]+0.032*[#   8]
    |psi|^2 = 0.996
==== e(   2) =    -0.78349 eV ==== 
     psi = 0.153*[#   1]+0.153*[#   5]+0.107*[#   3]+0.107*[#   4]+0.107*[#   7]
          +0.107*[#   8]+0.032*[#   2]+0.032*[#   6]
    |psi|^2 = 0.801
==== e(   3) =     2.92241 eV ==== 
     psi = 0.127*[#   2]+0.127*[#   6]+0.096*[#   3]+0.096*[#   4]+0.096*[#   7]
          +0.096*[#   8]+0.067*[#   1]+0.067*[#   5]
    |psi|^2 = 0.770
==== e(   4) =     4.26558 eV ==== 
     psi = 0.248*[#   3]+0.248*[#   4]+0.248*[#   7]+0.248*[#   8]+0.107*[#   2]
          +0.107*[#   6]
    |psi|^2 = 1.205

 k =  -0.5142594772  0.5142594772 -0.1285648693
==== e(   1) =    -2.85030 eV ==== 
     psi = 0.326*[#   1]+0.326*[#   5]+0.131*[#   2]+0.131*[#   6]+0.020*[#   3]
          +0.020*[#   4]+0.020*[#   7]+0.020*[#   8]
    |psi|^2 = 0.995
==== e(   2) =    -0.69949 eV ==== 
     psi = 0.218*[#   1]+0.218*[#   5]+0.067*[#   3]+0.067*[#   4]+0.067*[#   7]
          +0.067*[#   8]+0.020*[#   2]+0.020*[#   6]
    |psi|^2 = 0.746
==== e(   3) =     2.11749 eV ==== 
     psi = 0.143*[#   2]+0.143*[#   6]+0.139*[#   3]+0.139*[#   4]+0.139*[#   7]
          +0.139*[#   8]+0.032*[#   1]+0.032*[#   5]
    |psi|^2 = 0.905
==== e(   4) =     3.80310 eV ==== 
     psi = 0.248*[#   3]+0.248*[#   4]+0.248*[#   7]+0.248*[#   8]+0.067*[#   2]
          +0.067*[#   6]
    |psi|^2 = 1.127

 k =  -0.5785419119  0.5785419119 -0.0642824347
==== e(   1) =    -2.37372 eV ==== 
     psi = 0.300*[#   1]+0.300*[#   5]+0.177*[#   2]+0.177*[#   6]+0.010*[#   3]
          +0.010*[#   4]+0.010*[#   7]+0.010*[#   8]
    |psi|^2 = 0.994
==== e(   2) =    -1.05362 eV ==== 
     psi = 0.267*[#   1]+0.267*[#   5]+0.020*[#   3]+0.020*[#   4]+0.020*[#   7]
          +0.020*[#   8]+0.010*[#   2]+0.010*[#   6]
    |psi|^2 = 0.631
==== e(   3) =     2.13512 eV ==== 
     psi = 0.193*[#   3]+0.193*[#   4]+0.193*[#   7]+0.193*[#   8]+0.191*[#   2]
          +0.191*[#   6]+0.006*[#   1]+0.006*[#   5]
    |psi|^2 = 1.165
==== e(   4) =     3.44377 eV ==== 
     psi = 0.248*[#   3]+0.248*[#   4]+0.248*[#   7]+0.248*[#   8]+0.020*[#   2]
          +0.020*[#   6]
    |psi|^2 = 1.033

 k =  -0.6428243465  0.6428243465 -0.0000000000
==== e(   1) =    -1.82002 eV ==== 
     psi = 0.285*[#   1]+0.285*[#   5]+0.207*[#   2]+0.207*[#   6]+0.002*[#   3]
          +0.002*[#   4]+0.002*[#   7]+0.002*[#   8]
    |psi|^2 = 0.993
==== e(   2) =    -1.70957 eV ==== 
     psi = 0.273*[#   1]+0.273*[#   5]+0.004*[#   3]+0.004*[#   4]+0.004*[#   7]
          +0.004*[#   8]+0.002*[#   2]+0.002*[#   6]
    |psi|^2 = 0.566
==== e(   3) =     2.76160 eV ==== 
     psi = 0.225*[#   3]+0.225*[#   4]+0.225*[#   7]+0.225*[#   8]+0.216*[#   2]
          +0.216*[#   6]+0.007*[#   1]+0.007*[#   5]
    |psi|^2 = 1.345
==== e(   4) =     3.24148 eV ==== 
     psi = 0.249*[#   3]+0.249*[#   4]+0.249*[#   7]+0.249*[#   8]+0.004*[#   2]
          +0.004*[#   6]
    |psi|^2 = 1.002

 k =   0.0000000000  0.0000000000 -0.6428243465
==== e(   1) =    -2.46699 eV ==== 
     psi = 0.286*[#   1]+0.286*[#   5]+0.211*[#   2]+0.211*[#   6]
    |psi|^2 = 0.993
==== e(   2) =    -1.06530 eV ==== 
     psi = 0.269*[#   1]+0.269*[#   5]
    |psi|^2 = 0.538
==== e(   3) =     3.21616 eV ==== 
     psi = 0.465*[#   4]+0.465*[#   7]+0.227*[#   2]+0.227*[#   6]+0.032*[#   8]
          +0.032*[#   3]
    |psi|^2 = 1.449
==== e(   4) =     3.21616 eV ==== 
     psi = 0.465*[#   3]+0.465*[#   8]+0.032*[#   7]+0.032*[#   4]
    |psi|^2 = 0.994

 k =  -0.0642824347  0.0642824347 -0.5785419119
==== e(   1) =    -3.05037 eV ==== 
     psi = 0.297*[#   1]+0.297*[#   5]+0.195*[#   2]+0.195*[#   6]+0.002*[#   3]
          +0.002*[#   4]+0.002*[#   7]+0.002*[#   8]
    |psi|^2 = 0.994
==== e(   2) =    -0.33700 eV ==== 
     psi = 0.262*[#   1]+0.262*[#   5]+0.007*[#   3]+0.007*[#   4]+0.007*[#   7]
          +0.007*[#   8]+0.002*[#   2]+0.002*[#   6]
    |psi|^2 = 0.554
==== e(   3) =     2.92825 eV ==== 
     psi = 0.222*[#   3]+0.222*[#   4]+0.222*[#   7]+0.222*[#   8]+0.221*[#   2]
          +0.221*[#   6]+0.009*[#   1]+0.009*[#   5]
    |psi|^2 = 1.348
==== e(   4) =     3.37012 eV ==== 
     psi = 0.248*[#   3]+0.248*[#   4]+0.248*[#   7]+0.248*[#   8]+0.007*[#   2]
          +0.007*[#   6]
    |psi|^2 = 1.007

 k =  -0.1285648693  0.1285648693 -0.5142594772
==== e(   1) =    -3.46818 eV ==== 
     psi = 0.314*[#   1]+0.314*[#   5]+0.165*[#   2]+0.165*[#   6]+0.009*[#   3]
          +0.009*[#   4]+0.009*[#   7]+0.009*[#   8]
    |psi|^2 = 0.994
==== e(   2) =     0.10657 eV ==== 
     psi = 0.234*[#   1]+0.234*[#   5]+0.048*[#   3]+0.048*[#   4]+0.048*[#   7]
          +0.048*[#   8]+0.009*[#   2]+0.009*[#   6]
    |psi|^2 = 0.678
==== e(   3) =     2.69639 eV ==== 
     psi = 0.166*[#   2]+0.166*[#   6]+0.163*[#   3]+0.163*[#   4]+0.163*[#   7]
          +0.163*[#   8]+0.030*[#   1]+0.030*[#   5]
    |psi|^2 = 1.046
==== e(   4) =     3.68961 eV ==== 
     psi = 0.248*[#   3]+0.248*[#   4]+0.248*[#   7]+0.248*[#   8]+0.048*[#   2]
          +0.048*[#   6]
    |psi|^2 = 1.088

 k =  -0.1928473040  0.1928473040 -0.4499770426
==== e(   1) =    -3.70988 eV ==== 
     psi = 0.336*[#   1]+0.336*[#   5]+0.122*[#   2]+0.122*[#   6]+0.020*[#   3]
          +0.020*[#   4]+0.020*[#   7]+0.020*[#   8]
    |psi|^2 = 0.995
==== e(   2) =    -0.06890 eV ==== 
     psi = 0.177*[#   1]+0.177*[#   5]+0.103*[#   3]+0.103*[#   4]+0.103*[#   7]
          +0.103*[#   8]+0.020*[#   2]+0.020*[#   6]
    |psi|^2 = 0.807
==== e(   3) =     3.26018 eV ==== 
     psi = 0.112*[#   2]+0.112*[#   6]+0.100*[#   3]+0.100*[#   4]+0.100*[#   7]
          +0.100*[#   8]+0.067*[#   1]+0.067*[#   5]
    |psi|^2 = 0.757
==== e(   4) =     4.13319 eV ==== 
     psi = 0.248*[#   3]+0.248*[#   4]+0.248*[#   7]+0.248*[#   8]+0.103*[#   2]
          +0.103*[#   6]
    |psi|^2 = 1.197

 k =  -0.2571297386  0.2571297386 -0.3856946079
==== e(   1) =    -3.78207 eV ==== 
     psi = 0.359*[#   1]+0.359*[#   5]+0.074*[#   2]+0.074*[#   6]+0.032*[#   3]
          +0.032*[#   4]+0.032*[#   7]+0.032*[#   8]
    |psi|^2 = 0.996
==== e(   2) =    -0.48332 eV ==== 
     psi = 0.142*[#   1]+0.142*[#   5]+0.122*[#   3]+0.122*[#   4]+0.122*[#   7]
          +0.122*[#   8]+0.032*[#   2]+0.032*[#   6]
    |psi|^2 = 0.835
==== e(   3) =     4.26062 eV ==== 
     psi = 0.109*[#   2]+0.109*[#   6]+0.079*[#   3]+0.079*[#   4]+0.079*[#   7]
          +0.079*[#   8]+0.054*[#   1]+0.054*[#   5]
    |psi|^2 = 0.640
==== e(   4) =     4.59588 eV ==== 
     psi = 0.247*[#   3]+0.247*[#   4]+0.247*[#   7]+0.247*[#   8]+0.122*[#   2]
          +0.122*[#   6]
    |psi|^2 = 1.232

 k =  -0.2571297386  0.2571297386 -0.2571297386
==== e(   1) =    -4.31929 eV ==== 
     psi = 0.358*[#   1]+0.358*[#   5]+0.047*[#   2]+0.047*[#   3]+0.047*[#   4]
          +0.047*[#   6]+0.047*[#   7]+0.047*[#   8]
    |psi|^2 = 0.995
==== e(   2) =     0.22752 eV ==== 
     psi = 0.148*[#   1]+0.148*[#   5]+0.115*[#   3]+0.115*[#   4]+0.115*[#   7]
          +0.115*[#   8]+0.047*[#   2]+0.047*[#   6]
    |psi|^2 = 0.851
==== e(   3) =     4.97102 eV ==== 
     psi = 0.195*[#   4]+0.195*[#   8]+0.115*[#   2]+0.115*[#   6]+0.010*[#   3]
          +0.010*[#   7]
    |psi|^2 = 0.641
==== e(   4) =     4.97102 eV ==== 
     psi = 0.319*[#   3]+0.319*[#   7]+0.133*[#   4]+0.133*[#   8]+0.115*[#   2]
          +0.115*[#   6]
    |psi|^2 = 1.135

 k =  -0.3214121733  0.3214121733 -0.1928473040
==== e(   1) =    -3.99691 eV ==== 
     psi = 0.354*[#   1]+0.354*[#   5]+0.059*[#   3]+0.059*[#   4]+0.059*[#   7]
          +0.059*[#   8]+0.026*[#   2]+0.026*[#   6]
    |psi|^2 = 0.996
==== e(   2) =    -0.13430 eV ==== 
     psi = 0.149*[#   1]+0.149*[#   5]+0.106*[#   3]+0.106*[#   4]+0.106*[#   7]
          +0.106*[#   8]+0.059*[#   2]+0.059*[#   6]
    |psi|^2 = 0.839
==== e(   3) =     4.04504 eV ==== 
     psi = 0.134*[#   2]+0.134*[#   6]+0.090*[#   3]+0.090*[#   4]+0.090*[#   7]
          +0.090*[#   8]+0.048*[#   1]+0.048*[#   5]
    |psi|^2 = 0.722
==== e(   4) =     4.92713 eV ==== 
     psi = 0.247*[#   3]+0.247*[#   4]+0.247*[#   7]+0.247*[#   8]+0.106*[#   2]
          +0.106*[#   6]
    |psi|^2 = 1.199

 k =  -0.3856946079  0.3856946079 -0.1285648693
==== e(   1) =    -3.51088 eV ==== 
     psi = 0.343*[#   1]+0.343*[#   5]+0.061*[#   3]+0.061*[#   4]+0.061*[#   7]
          +0.061*[#   8]+0.033*[#   2]+0.033*[#   6]
    |psi|^2 = 0.996
==== e(   2) =    -0.36918 eV ==== 
     psi = 0.167*[#   1]+0.167*[#   5]+0.090*[#   3]+0.090*[#   4]+0.090*[#   7]
          +0.090*[#   8]+0.061*[#   2]+0.061*[#   6]
    |psi|^2 = 0.815
==== e(   3) =     2.76730 eV ==== 
     psi = 0.148*[#   2]+0.148*[#   6]+0.097*[#   3]+0.097*[#   4]+0.097*[#   7]
          +0.097*[#   8]+0.063*[#   1]+0.063*[#   5]
    |psi|^2 = 0.810
==== e(   4) =     4.54524 eV ==== 
     psi = 0.247*[#   3]+0.247*[#   4]+0.247*[#   7]+0.247*[#   8]+0.090*[#   2]
          +0.090*[#   6]
    |psi|^2 = 1.169

 k =  -0.4499770426  0.4499770426 -0.0642824347
==== e(   1) =    -2.90567 eV ==== 
     psi = 0.332*[#   1]+0.332*[#   5]+0.062*[#   2]+0.062*[#   6]+0.052*[#   3]
          +0.052*[#   4]+0.052*[#   7]+0.052*[#   8]
    |psi|^2 = 0.996
==== e(   2) =    -0.62028 eV ==== 
     psi = 0.213*[#   1]+0.213*[#   5]+0.059*[#   3]+0.059*[#   4]+0.059*[#   7]
          +0.059*[#   8]+0.052*[#   2]+0.052*[#   6]
    |psi|^2 = 0.768
==== e(   3) =     1.82880 eV ==== 
     psi = 0.164*[#   2]+0.164*[#   6]+0.127*[#   3]+0.127*[#   4]+0.127*[#   7]
          +0.127*[#   8]+0.028*[#   1]+0.028*[#   5]
    |psi|^2 = 0.893
==== e(   4) =     4.07894 eV ==== 
     psi = 0.248*[#   3]+0.248*[#   4]+0.248*[#   7]+0.248*[#   8]+0.059*[#   2]
          +0.059*[#   6]
    |psi|^2 = 1.110

 k =  -0.5142594772  0.5142594772  0.0000000000
==== e(   1) =    -2.30544 eV ==== 
     psi = 0.322*[#   1]+0.322*[#   5]+0.109*[#   2]+0.109*[#   6]+0.033*[#   3]
          +0.033*[#   4]+0.033*[#   7]+0.033*[#   8]
    |psi|^2 = 0.995
==== e(   2) =    -1.08827 eV ==== 
     psi = 0.249*[#   1]+0.249*[#   5]+0.033*[#   2]+0.033*[#   6]+0.029*[#   3]
          +0.029*[#   4]+0.029*[#   7]+0.029*[#   8]
    |psi|^2 = 0.679
==== e(   3) =     1.64240 eV ==== 
     psi = 0.190*[#   2]+0.190*[#   6]+0.166*[#   3]+0.166*[#   4]+0.166*[#   7]
          +0.166*[#   8]
    |psi|^2 = 1.047
==== e(   4) =     3.68904 eV ==== 
     psi = 0.248*[#   3]+0.248*[#   4]+0.248*[#   7]+0.248*[#   8]+0.029*[#   2]
          +0.029*[#   6]
    |psi|^2 = 1.050

 k =  -0.5785419119  0.5785419119  0.0642824347
==== e(   1) =    -2.37372 eV ==== 
     psi = 0.300*[#   1]+0.300*[#   5]+0.177*[#   2]+0.177*[#   6]+0.010*[#   3]
          +0.010*[#   4]+0.010*[#   7]+0.010*[#   8]
    |psi|^2 = 0.994
==== e(   2) =    -1.05362 eV ==== 
     psi = 0.267*[#   1]+0.267*[#   5]+0.020*[#   3]+0.020*[#   4]+0.020*[#   7]
          +0.020*[#   8]+0.010*[#   2]+0.010*[#   6]
    |psi|^2 = 0.631
==== e(   3) =     2.13512 eV ==== 
     psi = 0.193*[#   3]+0.193*[#   4]+0.193*[#   7]+0.193*[#   8]+0.191*[#   2]
          +0.191*[#   6]+0.006*[#   1]+0.006*[#   5]
    |psi|^2 = 1.165
==== e(   4) =     3.44377 eV ==== 
     psi = 0.248*[#   3]+0.248*[#   4]+0.248*[#   7]+0.248*[#   8]+0.020*[#   2]
          +0.020*[#   6]
    |psi|^2 = 1.033

 k =   0.0642824347 -0.0642824347 -0.5785419119
==== e(   1) =    -3.05037 eV ==== 
     psi = 0.297*[#   1]+0.297*[#   5]+0.195*[#   2]+0.195*[#   6]+0.002*[#   3]
          +0.002*[#   4]+0.002*[#   7]+0.002*[#   8]
    |psi|^2 = 0.994
==== e(   2) =    -0.33700 eV ==== 
     psi = 0.262*[#   1]+0.262*[#   5]+0.007*[#   3]+0.007*[#   4]+0.007*[#   7]
          +0.007*[#   8]+0.002*[#   2]+0.002*[#   6]
    |psi|^2 = 0.554
==== e(   3) =     2.92825 eV ==== 
     psi = 0.222*[#   3]+0.222*[#   4]+0.222*[#   7]+0.222*[#   8]+0.221*[#   2]
          +0.221*[#   6]+0.009*[#   1]+0.009*[#   5]
    |psi|^2 = 1.348
==== e(   4) =     3.37012 eV ==== 
     psi = 0.248*[#   3]+0.248*[#   4]+0.248*[#   7]+0.248*[#   8]+0.007*[#   2]
          +0.007*[#   6]
    |psi|^2 = 1.007

 k =   0.0000000000  0.0000000000 -0.5142594772
==== e(   1) =    -3.67279 eV ==== 
     psi = 0.306*[#   1]+0.306*[#   5]+0.191*[#   2]+0.191*[#   6]
    |psi|^2 = 0.994
==== e(   2) =     0.47629 eV ==== 
     psi = 0.250*[#   1]+0.250*[#   5]
    |psi|^2 = 0.501
==== e(   3) =     3.47513 eV ==== 
     psi = 0.482*[#   4]+0.481*[#   7]+0.245*[#   2]+0.245*[#   6]+0.016*[#   8]
          +0.014*[#   3]
    |psi|^2 = 1.484
==== e(   4) =     3.47513 eV ==== 
     psi = 0.482*[#   3]+0.481*[#   8]+0.016*[#   7]+0.014*[#   4]
    |psi|^2 = 0.993

 k =  -0.0642824347  0.0642824347 -0.4499770426
==== e(   1) =    -4.12904 eV ==== 
     psi = 0.321*[#   1]+0.321*[#   5]+0.170*[#   2]+0.170*[#   6]+0.003*[#   3]
          +0.003*[#   4]+0.003*[#   7]+0.003*[#   8]
    |psi|^2 = 0.995
==== e(   2) =     1.13689 eV ==== 
     psi = 0.234*[#   1]+0.234*[#   5]+0.019*[#   3]+0.019*[#   4]+0.019*[#   7]
          +0.019*[#   8]+0.003*[#   2]+0.003*[#   6]
    |psi|^2 = 0.549
==== e(   3) =     3.43477 eV ==== 
     psi = 0.223*[#   2]+0.223*[#   6]+0.208*[#   3]+0.208*[#   4]+0.208*[#   7]
          +0.208*[#   8]+0.018*[#   1]+0.018*[#   5]
    |psi|^2 = 1.313
==== e(   4) =     3.75043 eV ==== 
     psi = 0.248*[#   3]+0.248*[#   4]+0.248*[#   7]+0.248*[#   8]+0.019*[#   2]
          +0.019*[#   6]
    |psi|^2 = 1.030

 k =  -0.1285648693  0.1285648693 -0.3856946079
==== e(   1) =    -4.39218 eV ==== 
     psi = 0.338*[#   1]+0.338*[#   5]+0.133*[#   2]+0.133*[#   6]+0.013*[#   3]
          +0.013*[#   4]+0.013*[#   7]+0.013*[#   8]
    |psi|^2 = 0.995
==== e(   2) =     1.17321 eV ==== 
     psi = 0.186*[#   1]+0.186*[#   5]+0.085*[#   3]+0.085*[#   4]+0.085*[#   7]
          +0.085*[#   8]+0.013*[#   2]+0.013*[#   6]
    |psi|^2 = 0.738
==== e(   3) =     3.74034 eV ==== 
     psi = 0.139*[#   2]+0.139*[#   6]+0.119*[#   3]+0.119*[#   4]+0.119*[#   7]
          +0.119*[#   8]+0.060*[#   1]+0.060*[#   5]
    |psi|^2 = 0.872
==== e(   4) =     4.16452 eV ==== 
     psi = 0.247*[#   3]+0.247*[#   4]+0.247*[#   7]+0.247*[#   8]+0.085*[#   2]
          +0.085*[#   6]
    |psi|^2 = 1.160

 k =  -0.1928473040  0.1928473040 -0.3214121733
==== e(   1) =    -4.45480 eV ==== 
     psi = 0.352*[#   1]+0.352*[#   5]+0.087*[#   2]+0.087*[#   6]+0.029*[#   3]
          +0.029*[#   4]+0.029*[#   7]+0.029*[#   8]
    |psi|^2 = 0.995
==== e(   2) =     0.71373 eV ==== 
     psi = 0.156*[#   1]+0.156*[#   5]+0.115*[#   3]+0.115*[#   4]+0.115*[#   7]
          +0.115*[#   8]+0.029*[#   2]+0.029*[#   6]
    |psi|^2 = 0.832
==== e(   3) =     4.55957 eV ==== 
     psi = 0.107*[#   2]+0.107*[#   6]+0.077*[#   3]+0.077*[#   4]+0.077*[#   7]
          +0.077*[#   8]+0.053*[#   1]+0.053*[#   5]
    |psi|^2 = 0.630
==== e(   4) =     4.63497 eV ==== 
     psi = 0.247*[#   3]+0.247*[#   4]+0.247*[#   7]+0.247*[#   8]+0.115*[#   2]
          +0.115*[#   6]
    |psi|^2 = 1.217

 k =  -0.1928473040  0.1928473040 -0.1928473040
==== e(   1) =    -4.98113 eV ==== 
     psi = 0.373*[#   1]+0.373*[#   5]+0.042*[#   2]+0.042*[#   3]+0.042*[#   4]
          +0.042*[#   6]+0.042*[#   7]+0.042*[#   8]
    |psi|^2 = 0.995
==== e(   2) =     1.68603 eV ==== 
     psi = 0.145*[#   1]+0.145*[#   5]+0.116*[#   3]+0.116*[#   4]+0.116*[#   7]
          +0.116*[#   8]+0.042*[#   2]+0.042*[#   6]
    |psi|^2 = 0.838
==== e(   3) =     5.20190 eV ==== 
     psi = 0.194*[#   4]+0.194*[#   8]+0.116*[#   2]+0.116*[#   6]+0.011*[#   3]
          +0.011*[#   7]
    |psi|^2 = 0.642
==== e(   4) =     5.20190 eV ==== 
     psi = 0.317*[#   3]+0.317*[#   7]+0.133*[#   4]+0.133*[#   8]+0.116*[#   2]
          +0.116*[#   6]
    |psi|^2 = 1.132

 k =  -0.2571297386  0.2571297386 -0.1285648693
==== e(   1) =    -4.67868 eV ==== 
     psi = 0.358*[#   1]+0.358*[#   5]+0.061*[#   3]+0.061*[#   4]+0.061*[#   7]
          +0.061*[#   8]+0.017*[#   2]+0.017*[#   6]
    |psi|^2 = 0.995
==== e(   2) =     1.19752 eV ==== 
     psi = 0.155*[#   1]+0.155*[#   5]+0.106*[#   3]+0.106*[#   4]+0.106*[#   7]
          +0.106*[#   8]+0.061*[#   2]+0.061*[#   6]
    |psi|^2 = 0.857
==== e(   3) =     4.16580 eV ==== 
     psi = 0.127*[#   2]+0.127*[#   6]+0.093*[#   3]+0.093*[#   4]+0.093*[#   7]
          +0.093*[#   8]+0.043*[#   1]+0.043*[#   5]
    |psi|^2 = 0.713
==== e(   4) =     5.25206 eV ==== 
     psi = 0.246*[#   3]+0.246*[#   4]+0.246*[#   7]+0.246*[#   8]+0.106*[#   2]
          +0.106*[#   6]
    |psi|^2 = 1.197

 k =  -0.3214121733  0.3214121733 -0.0642824347
==== e(   1) =    -4.18553 eV ==== 
     psi = 0.339*[#   1]+0.339*[#   5]+0.072*[#   3]+0.072*[#   4]+0.072*[#   7]
          +0.072*[#   8]+0.014*[#   2]+0.014*[#   6]
    |psi|^2 = 0.995
==== e(   2) =     0.75295 eV ==== 
     psi = 0.181*[#   1]+0.181*[#   5]+0.088*[#   3]+0.088*[#   4]+0.088*[#   7]
          +0.088*[#   8]+0.072*[#   2]+0.072*[#   6]
    |psi|^2 = 0.857
==== e(   3) =     2.84711 eV ==== 
     psi = 0.139*[#   2]+0.139*[#   6]+0.099*[#   3]+0.099*[#   4]+0.099*[#   7]
          +0.099*[#   8]+0.054*[#   1]+0.054*[#   5]
    |psi|^2 = 0.780
==== e(   4) =     4.93429 eV ==== 
     psi = 0.247*[#   3]+0.247*[#   4]+0.247*[#   7]+0.247*[#   8]+0.088*[#   2]
          +0.088*[#   6]
    |psi|^2 = 1.163

 k =  -0.3856946079  0.3856946079  0.0000000000
==== e(   1) =    -3.54323 eV ==== 
     psi = 0.328*[#   1]+0.328*[#   5]+0.071*[#   3]+0.071*[#   4]+0.071*[#   7]
          +0.071*[#   8]+0.028*[#   2]+0.028*[#   6]
    |psi|^2 = 0.995
==== e(   2) =     0.14170 eV ==== 
     psi = 0.216*[#   1]+0.216*[#   5]+0.071*[#   2]+0.071*[#   6]+0.064*[#   3]
          +0.064*[#   4]+0.064*[#   7]+0.064*[#   8]
    |psi|^2 = 0.828
==== e(   3) =     1.98956 eV ==== 
     psi = 0.153*[#   2]+0.153*[#   6]+0.115*[#   3]+0.115*[#   4]+0.115*[#   7]
          +0.115*[#   8]+0.031*[#   1]+0.031*[#   5]
    |psi|^2 = 0.829
==== e(   4) =     4.48312 eV ==== 
     psi = 0.247*[#   3]+0.247*[#   4]+0.247*[#   7]+0.247*[#   8]+0.064*[#   2]
          +0.064*[#   6]
    |psi|^2 = 1.117

 k =  -0.4499770426  0.4499770426  0.0642824347
==== e(   1) =    -2.90567 eV ==== 
     psi = 0.332*[#   1]+0.332*[#   5]+0.062*[#   2]+0.062*[#   6]+0.052*[#   3]
          +0.052*[#   4]+0.052*[#   7]+0.052*[#   8]
    |psi|^2 = 0.996
==== e(   2) =    -0.62028 eV ==== 
     psi = 0.213*[#   1]+0.213*[#   5]+0.059*[#   3]+0.059*[#   4]+0.059*[#   7]
          +0.059*[#   8]+0.052*[#   2]+0.052*[#   6]
    |psi|^2 = 0.768
==== e(   3) =     1.82880 eV ==== 
     psi = 0.164*[#   2]+0.164*[#   6]+0.127*[#   3]+0.127*[#   4]+0.127*[#   7]
          +0.127*[#   8]+0.028*[#   1]+0.028*[#   5]
    |psi|^2 = 0.893
==== e(   4) =     4.07894 eV ==== 
     psi = 0.248*[#   3]+0.248*[#   4]+0.248*[#   7]+0.248*[#   8]+0.059*[#   2]
          +0.059*[#   6]
    |psi|^2 = 1.110

 k =  -0.5142594772  0.5142594772  0.1285648693
==== e(   1) =    -2.85030 eV ==== 
     psi = 0.326*[#   1]+0.326*[#   5]+0.131*[#   2]+0.131*[#   6]+0.020*[#   3]
          +0.020*[#   4]+0.020*[#   7]+0.020*[#   8]
    |psi|^2 = 0.995
==== e(   2) =    -0.69949 eV ==== 
     psi = 0.218*[#   1]+0.218*[#   5]+0.067*[#   3]+0.067*[#   4]+0.067*[#   7]
          +0.067*[#   8]+0.020*[#   2]+0.020*[#   6]
    |psi|^2 = 0.746
==== e(   3) =     2.11749 eV ==== 
     psi = 0.143*[#   2]+0.143*[#   6]+0.139*[#   3]+0.139*[#   4]+0.139*[#   7]
          +0.139*[#   8]+0.032*[#   1]+0.032*[#   5]
    |psi|^2 = 0.905
==== e(   4) =     3.80310 eV ==== 
     psi = 0.248*[#   3]+0.248*[#   4]+0.248*[#   7]+0.248*[#   8]+0.067*[#   2]
          +0.067*[#   6]
    |psi|^2 = 1.127

 k =   0.1285648693 -0.1285648693 -0.5142594772
==== e(   1) =    -3.46818 eV ==== 
     psi = 0.314*[#   1]+0.314*[#   5]+0.165*[#   2]+0.165*[#   6]+0.009*[#   3]
          +0.009*[#   4]+0.009*[#   7]+0.009*[#   8]
    |psi|^2 = 0.994
==== e(   2) =     0.10657 eV ==== 
     psi = 0.234*[#   1]+0.234*[#   5]+0.048*[#   3]+0.048*[#   4]+0.048*[#   7]
          +0.048*[#   8]+0.009*[#   2]+0.009*[#   6]
    |psi|^2 = 0.678
==== e(   3) =     2.69639 eV ==== 
     psi = 0.166*[#   2]+0.166*[#   6]+0.163*[#   3]+0.163*[#   4]+0.163*[#   7]
          +0.163*[#   8]+0.030*[#   1]+0.030*[#   5]
    |psi|^2 = 1.046
==== e(   4) =     3.68961 eV ==== 
     psi = 0.248*[#   3]+0.248*[#   4]+0.248*[#   7]+0.248*[#   8]+0.048*[#   2]
          +0.048*[#   6]
    |psi|^2 = 1.088

 k =   0.0642824347 -0.0642824347 -0.4499770426
==== e(   1) =    -4.12904 eV ==== 
     psi = 0.321*[#   1]+0.321*[#   5]+0.170*[#   2]+0.170*[#   6]+0.003*[#   3]
          +0.003*[#   4]+0.003*[#   7]+0.003*[#   8]
    |psi|^2 = 0.995
==== e(   2) =     1.13689 eV ==== 
     psi = 0.234*[#   1]+0.234*[#   5]+0.019*[#   3]+0.019*[#   4]+0.019*[#   7]
          +0.019*[#   8]+0.003*[#   2]+0.003*[#   6]
    |psi|^2 = 0.549
==== e(   3) =     3.43477 eV ==== 
     psi = 0.223*[#   2]+0.223*[#   6]+0.208*[#   3]+0.208*[#   4]+0.208*[#   7]
          +0.208*[#   8]+0.018*[#   1]+0.018*[#   5]
    |psi|^2 = 1.313
==== e(   4) =     3.75043 eV ==== 
     psi = 0.248*[#   3]+0.248*[#   4]+0.248*[#   7]+0.248*[#   8]+0.019*[#   2]
          +0.019*[#   6]
    |psi|^2 = 1.030

 k =   0.0000000000  0.0000000000 -0.3856946079
==== e(   1) =    -4.64281 eV ==== 
     psi = 0.340*[#   1]+0.340*[#   5]+0.158*[#   2]+0.158*[#   6]
    |psi|^2 = 0.995
==== e(   2) =     2.09056 eV ==== 
     psi = 0.224*[#   1]+0.224*[#   5]
    |psi|^2 = 0.448
==== e(   3) =     3.98198 eV ==== 
     psi = 0.490*[#   4]+0.483*[#   7]+0.270*[#   2]+0.270*[#   6]+0.012*[#   8]
          +0.006*[#   3]
    |psi|^2 = 1.531
==== e(   4) =     3.98198 eV ==== 
     psi = 0.490*[#   3]+0.483*[#   8]+0.012*[#   7]+0.006*[#   4]
    |psi|^2 = 0.991

 k =  -0.0642824347  0.0642824347 -0.3214121733
==== e(   1) =    -4.96387 eV ==== 
     psi = 0.361*[#   1]+0.361*[#   5]+0.127*[#   2]+0.127*[#   6]+0.005*[#   3]
          +0.005*[#   4]+0.005*[#   7]+0.005*[#   8]
    |psi|^2 = 0.995
==== e(   2) =     2.54873 eV ==== 
     psi = 0.184*[#   1]+0.184*[#   5]+0.050*[#   3]+0.050*[#   4]+0.050*[#   7]
          +0.050*[#   8]+0.005*[#   2]+0.005*[#   6]
    |psi|^2 = 0.579
==== e(   3) =     4.27952 eV ==== 
     psi = 0.208*[#   2]+0.208*[#   6]+0.173*[#   3]+0.173*[#   4]+0.173*[#   7]
          +0.173*[#   8]+0.034*[#   1]+0.034*[#   5]
    |psi|^2 = 1.176
==== e(   4) =     4.36071 eV ==== 
     psi = 0.247*[#   3]+0.247*[#   4]+0.247*[#   7]+0.247*[#   8]+0.050*[#   2]
          +0.050*[#   6]
    |psi|^2 = 1.089

 k =  -0.1285648693  0.1285648693 -0.2571297386
==== e(   1) =    -5.07771 eV ==== 
     psi = 0.375*[#   1]+0.375*[#   5]+0.084*[#   2]+0.084*[#   6]+0.020*[#   3]
          +0.020*[#   4]+0.020*[#   7]+0.020*[#   8]
    |psi|^2 = 0.995
==== e(   2) =     2.22496 eV ==== 
     psi = 0.148*[#   1]+0.148*[#   5]+0.110*[#   3]+0.110*[#   4]+0.110*[#   7]
          +0.110*[#   8]+0.020*[#   2]+0.020*[#   6]
    |psi|^2 = 0.774
==== e(   3) =     4.82085 eV ==== 
     psi = 0.246*[#   3]+0.246*[#   4]+0.246*[#   7]+0.246*[#   8]+0.126*[#   2]
          +0.126*[#   6]
    |psi|^2 = 1.237
==== e(   4) =     4.94317 eV ==== 
     psi = 0.110*[#   2]+0.110*[#   6]+0.086*[#   3]+0.086*[#   4]+0.086*[#   7]
          +0.086*[#   8]+0.047*[#   1]+0.047*[#   5]
    |psi|^2 = 0.659

 k =  -0.1285648693  0.1285648693 -0.1285648693
==== e(   1) =    -5.49747 eV ==== 
     psi = 0.415*[#   1]+0.415*[#   5]+0.028*[#   2]+0.028*[#   3]+0.028*[#   4]
          +0.028*[#   6]+0.028*[#   7]+0.028*[#   8]
    |psi|^2 = 0.996
==== e(   2) =     3.34853 eV ==== 
     psi = 0.124*[#   3]+0.124*[#   4]+0.124*[#   7]+0.124*[#   8]+0.120*[#   1]
          +0.120*[#   5]+0.028*[#   2]+0.028*[#   6]
    |psi|^2 = 0.791
==== e(   3) =     5.52495 eV ==== 
     psi = 0.187*[#   4]+0.187*[#   8]+0.124*[#   2]+0.124*[#   6]+0.013*[#   3]
          +0.013*[#   7]
    |psi|^2 = 0.648
==== e(   4) =     5.52495 eV ==== 
     psi = 0.313*[#   3]+0.313*[#   7]+0.138*[#   4]+0.138*[#   8]+0.124*[#   2]
          +0.124*[#   6]
    |psi|^2 = 1.150

 k =  -0.1928473040  0.1928473040 -0.0642824347
==== e(   1) =    -5.25120 eV ==== 
     psi = 0.388*[#   1]+0.388*[#   5]+0.051*[#   3]+0.051*[#   4]+0.051*[#   7]
          +0.051*[#   8]+0.007*[#   2]+0.007*[#   6]
    |psi|^2 = 0.996
==== e(   2) =     2.75157 eV ==== 
     psi = 0.140*[#   1]+0.140*[#   5]+0.119*[#   3]+0.119*[#   4]+0.119*[#   7]
          +0.119*[#   8]+0.051*[#   2]+0.051*[#   6]
    |psi|^2 = 0.861
==== e(   3) =     4.46304 eV ==== 
     psi = 0.114*[#   2]+0.114*[#   6]+0.090*[#   3]+0.090*[#   4]+0.090*[#   7]
          +0.090*[#   8]+0.034*[#   1]+0.034*[#   5]
    |psi|^2 = 0.657
==== e(   4) =     5.61711 eV ==== 
     psi = 0.245*[#   3]+0.245*[#   4]+0.245*[#   7]+0.245*[#   8]+0.119*[#   2]
          +0.119*[#   6]
    |psi|^2 = 1.217

 k =  -0.2571297386  0.2571297386  0.0000000000
==== e(   1) =    -4.80319 eV ==== 
     psi = 0.358*[#   1]+0.358*[#   5]+0.068*[#   3]+0.068*[#   4]+0.068*[#   7]
          +0.068*[#   8]+0.005*[#   2]+0.005*[#   6]
    |psi|^2 = 0.995
==== e(   2) =     1.94756 eV ==== 
     psi = 0.175*[#   1]+0.175*[#   5]+0.103*[#   3]+0.103*[#   4]+0.103*[#   7]
          +0.103*[#   8]+0.068*[#   2]+0.068*[#   6]
    |psi|^2 = 0.894
==== e(   3) =     3.33163 eV ==== 
     psi = 0.115*[#   2]+0.115*[#   6]+0.095*[#   3]+0.095*[#   4]+0.095*[#   7]
          +0.095*[#   8]+0.044*[#   1]+0.044*[#   5]
    |psi|^2 = 0.694
==== e(   4) =     5.34989 eV ==== 
     psi = 0.246*[#   3]+0.246*[#   4]+0.246*[#   7]+0.246*[#   8]+0.103*[#   2]
          +0.103*[#   6]
    |psi|^2 = 1.188

 k =  -0.3214121733  0.3214121733  0.0642824347
==== e(   1) =    -4.18553 eV ==== 
     psi = 0.339*[#   1]+0.339*[#   5]+0.072*[#   3]+0.072*[#   4]+0.072*[#   7]
          +0.072*[#   8]+0.014*[#   2]+0.014*[#   6]
    |psi|^2 = 0.995
==== e(   2) =     0.75294 eV ==== 
     psi = 0.181*[#   1]+0.181*[#   5]+0.088*[#   3]+0.088*[#   4]+0.088*[#   7]
          +0.088*[#   8]+0.072*[#   2]+0.072*[#   6]
    |psi|^2 = 0.857
==== e(   3) =     2.84711 eV ==== 
     psi = 0.139*[#   2]+0.139*[#   6]+0.099*[#   3]+0.099*[#   4]+0.099*[#   7]
          +0.099*[#   8]+0.054*[#   1]+0.054*[#   5]
    |psi|^2 = 0.780
==== e(   4) =     4.93429 eV ==== 
     psi = 0.247*[#   3]+0.247*[#   4]+0.247*[#   7]+0.247*[#   8]+0.088*[#   2]
          +0.088*[#   6]
    |psi|^2 = 1.163

 k =  -0.3856946079  0.3856946079  0.1285648693
==== e(   1) =    -3.51088 eV ==== 
     psi = 0.343*[#   1]+0.343*[#   5]+0.061*[#   3]+0.061*[#   4]+0.061*[#   7]
          +0.061*[#   8]+0.033*[#   2]+0.033*[#   6]
    |psi|^2 = 0.996
[...]
    |psi|^2 = 0.995
==== e(   2) =     2.54873 eV ==== 
     psi = 0.184*[#   1]+0.184*[#   5]+0.050*[#   3]+0.050*[#   4]+0.050*[#   7]
          +0.050*[#   8]+0.005*[#   2]+0.005*[#   6]
    |psi|^2 = 0.579
==== e(   3) =     4.27952 eV ==== 
     psi = 0.208*[#   2]+0.208*[#   6]+0.173*[#   3]+0.173*[#   4]+0.173*[#   7]
          +0.173*[#   8]+0.034*[#   1]+0.034*[#   5]
    |psi|^2 = 1.176
==== e(   4) =     4.36071 eV ==== 
     psi = 0.247*[#   3]+0.247*[#   4]+0.247*[#   7]+0.247*[#   8]+0.050*[#   2]
          +0.050*[#   6]
    |psi|^2 = 1.089

 k =  -0.1285648693 -0.0000000000 -0.2571297386
==== e(   1) =    -5.21290 eV ==== 
     psi = 0.382*[#   1]+0.382*[#   5]+0.093*[#   2]+0.093*[#   6]+0.021*[#   3]
          +0.021*[#   7]+0.001*[#   4]+0.001*[#   8]
    |psi|^2 = 0.996
==== e(   2) =     2.99141 eV ==== 
     psi = 0.159*[#   1]+0.159*[#   5]+0.081*[#   3]+0.081*[#   7]+0.079*[#   4]
          +0.079*[#   8]+0.021*[#   2]+0.021*[#   6]
    |psi|^2 = 0.679
==== e(   3) =     4.18623 eV ==== 
     psi = 0.291*[#   4]+0.291*[#   8]+0.174*[#   2]+0.174*[#   6]+0.127*[#   3]
          +0.127*[#   7]+0.027*[#   1]+0.027*[#   5]
    |psi|^2 = 1.237
==== e(   4) =     5.20977 eV ==== 
     psi = 0.259*[#   3]+0.259*[#   7]+0.081*[#   2]+0.081*[#   6]+0.060*[#   4]
          +0.060*[#   8]+0.014*[#   1]+0.014*[#   5]
    |psi|^2 = 0.826

 k =  -0.1928473040  0.0642824347 -0.1928473040
==== e(   1) =    -5.25120 eV ==== 
     psi = 0.388*[#   1]+0.388*[#   5]+0.051*[#   2]+0.051*[#   3]+0.051*[#   6]
          +0.051*[#   7]+0.007*[#   4]+0.007*[#   8]
    |psi|^2 = 0.996
==== e(   2) =     2.75157 eV ==== 
     psi = 0.140*[#   1]+0.140*[#   5]+0.119*[#   3]+0.119*[#   7]+0.114*[#   4]
          +0.114*[#   8]+0.051*[#   2]+0.051*[#   6]
    |psi|^2 = 0.850
==== e(   3) =     4.46304 eV ==== 
     psi = 0.277*[#   4]+0.277*[#   8]+0.119*[#   2]+0.119*[#   6]+0.090*[#   3]
          +0.090*[#   7]+0.034*[#   1]+0.034*[#   5]
    |psi|^2 = 1.042
==== e(   4) =     5.61711 eV ==== 
     psi = 0.245*[#   3]+0.245*[#   7]+0.119*[#   2]+0.119*[#   6]
    |psi|^2 = 0.728

 k =  -0.1928473040  0.0642824347 -0.0642824347
==== e(   1) =    -5.53122 eV ==== 
     psi = 0.418*[#   1]+0.418*[#   5]+0.066*[#   3]+0.066*[#   7]+0.007*[#   2]
          +0.007*[#   4]+0.007*[#   6]+0.007*[#   8]
    |psi|^2 = 0.996
==== e(   2) =     3.84965 eV ==== 
     psi = 0.179*[#   3]+0.179*[#   7]+0.122*[#   1]+0.122*[#   5]+0.095*[#   4]
          +0.095*[#   8]+0.066*[#   2]+0.066*[#   6]
    |psi|^2 = 0.924
==== e(   3) =     5.13966 eV ==== 
     psi = 0.245*[#   4]+0.245*[#   8]+0.095*[#   2]+0.095*[#   6]
    |psi|^2 = 0.679
==== e(   4) =     5.31966 eV ==== 
     psi = 0.209*[#   3]+0.209*[#   7]+0.179*[#   2]+0.179*[#   6]+0.124*[#   4]
          +0.124*[#   8]+0.032*[#   1]+0.032*[#   5]
    |psi|^2 = 1.088

 k =  -0.2571297386  0.1285648693  0.0000000000
==== e(   1) =    -5.21290 eV ==== 
     psi = 0.382*[#   1]+0.382*[#   5]+0.093*[#   3]+0.093*[#   7]+0.021*[#   4]
          +0.021*[#   8]+0.001*[#   2]+0.001*[#   6]
    |psi|^2 = 0.996
==== e(   2) =     2.99141 eV ==== 
     psi = 0.174*[#   3]+0.174*[#   7]+0.159*[#   1]+0.159*[#   5]+0.093*[#   2]
          +0.093*[#   6]+0.081*[#   4]+0.081*[#   8]
    |psi|^2 = 1.014
==== e(   3) =     4.18623 eV ==== 
     psi = 0.127*[#   4]+0.127*[#   8]+0.079*[#   2]+0.079*[#   6]+0.049*[#   3]
          +0.049*[#   7]+0.027*[#   1]+0.027*[#   5]
    |psi|^2 = 0.561
==== e(   4) =     5.20977 eV ==== 
     psi = 0.259*[#   4]+0.259*[#   8]+0.174*[#   2]+0.174*[#   6]+0.159*[#   3]
          +0.159*[#   7]+0.014*[#   1]+0.014*[#   5]
    |psi|^2 = 1.211

 k =  -0.3214121733  0.1928473040  0.0642824347
==== e(   1) =    -4.69947 eV ==== 
     psi = 0.352*[#   1]+0.352*[#   5]+0.105*[#   3]+0.105*[#   7]+0.033*[#   4]
          +0.033*[#   8]+0.007*[#   2]+0.007*[#   6]
    |psi|^2 = 0.995
==== e(   2) =     1.66937 eV ==== 
     psi = 0.172*[#   1]+0.172*[#   5]+0.127*[#   3]+0.127*[#   7]+0.105*[#   2]
          +0.105*[#   6]+0.084*[#   4]+0.084*[#   8]
    |psi|^2 = 0.976
==== e(   3) =     3.61994 eV ==== 
     psi = 0.111*[#   2]+0.111*[#   6]+0.110*[#   4]+0.110*[#   8]+0.086*[#   3]
          +0.086*[#   7]+0.047*[#   1]+0.047*[#   5]
    |psi|^2 = 0.710
==== e(   4) =     4.88930 eV ==== 
     psi = 0.251*[#   4]+0.251*[#   8]+0.176*[#   3]+0.176*[#   7]+0.127*[#   2]
          +0.127*[#   6]+0.011*[#   1]+0.011*[#   5]
    |psi|^2 = 1.129

 k =  -0.3856946079  0.2571297386  0.1285648693
==== e(   1) =    -4.03943 eV ==== 
     psi = 0.340*[#   1]+0.340*[#   5]+0.102*[#   3]+0.102*[#   7]+0.037*[#   4]
          +0.037*[#   8]+0.018*[#   2]+0.018*[#   6]
    |psi|^2 = 0.995
==== e(   2) =     0.32199 eV ==== 
     psi = 0.170*[#   1]+0.170*[#   5]+0.103*[#   3]+0.103*[#   7]+0.102*[#   2]
          +0.102*[#   6]+0.092*[#   4]+0.092*[#   8]
    |psi|^2 = 0.935
==== e(   3) =     3.36269 eV ==== 
     psi = 0.130*[#   2]+0.130*[#   6]+0.123*[#   3]+0.123*[#   7]+0.083*[#   4]
          +0.083*[#   8]+0.062*[#   1]+0.062*[#   5]
    |psi|^2 = 0.795
==== e(   4) =     4.54416 eV ==== 
     psi = 0.260*[#   4]+0.260*[#   8]+0.164*[#   3]+0.164*[#   7]+0.103*[#   2]
          +0.103*[#   6]+0.006*[#   1]+0.006*[#   5]
    |psi|^2 = 1.067

 k =  -0.4499770426  0.3214121733  0.1928473040
==== e(   1) =    -3.42100 eV ==== 
     psi = 0.354*[#   1]+0.354*[#   5]+0.077*[#   3]+0.077*[#   7]+0.035*[#   2]
          +0.035*[#   6]+0.032*[#   4]+0.032*[#   8]
    |psi|^2 = 0.996
==== e(   2) =    -0.66444 eV ==== 
     psi = 0.149*[#   1]+0.149*[#   5]+0.109*[#   3]+0.109*[#   7]+0.103*[#   4]
          +0.103*[#   8]+0.077*[#   2]+0.077*[#   6]
    |psi|^2 = 0.877
==== e(   3) =     3.26328 eV ==== 
     psi = 0.162*[#   3]+0.162*[#   7]+0.133*[#   2]+0.133*[#   6]+0.070*[#   1]
          +0.070*[#   5]+0.062*[#   4]+0.062*[#   8]
    |psi|^2 = 0.855
==== e(   4) =     4.33297 eV ==== 
     psi = 0.274*[#   4]+0.274*[#   8]+0.129*[#   3]+0.129*[#   7]+0.109*[#   2]
          +0.109*[#   6]+0.002*[#   1]+0.002*[#   5]
    |psi|^2 = 1.028

 k =  -0.5142594772  0.3856946079  0.2571297386
==== e(   1) =    -3.42100 eV ==== 
     psi = 0.354*[#   1]+0.354*[#   5]+0.077*[#   2]+0.077*[#   6]+0.035*[#   3]
          +0.035*[#   7]+0.032*[#   4]+0.032*[#   8]
    |psi|^2 = 0.996
==== e(   2) =    -0.66444 eV ==== 
     psi = 0.149*[#   1]+0.149*[#   5]+0.133*[#   3]+0.133*[#   7]+0.103*[#   4]
          +0.103*[#   8]+0.035*[#   2]+0.035*[#   6]
    |psi|^2 = 0.841
==== e(   3) =     3.26328 eV ==== 
     psi = 0.201*[#   3]+0.201*[#   7]+0.109*[#   2]+0.109*[#   6]+0.070*[#   1]
          +0.070*[#   5]+0.062*[#   4]+0.062*[#   8]
    |psi|^2 = 0.885
==== e(   4) =     4.33297 eV ==== 
     psi = 0.274*[#   4]+0.274*[#   8]+0.133*[#   2]+0.133*[#   6]+0.089*[#   3]
          +0.089*[#   7]+0.002*[#   1]+0.002*[#   5]
    |psi|^2 = 0.996

 k =   0.1285648693 -0.2571297386 -0.3856946079
==== e(   1) =    -4.03943 eV ==== 
     psi = 0.340*[#   1]+0.340*[#   5]+0.102*[#   2]+0.102*[#   6]+0.037*[#   4]
          +0.037*[#   8]+0.018*[#   3]+0.018*[#   7]
    |psi|^2 = 0.995
==== e(   2) =     0.32199 eV ==== 
     psi = 0.170*[#   1]+0.170*[#   5]+0.130*[#   3]+0.130*[#   7]+0.092*[#   4]
          +0.092*[#   8]+0.018*[#   2]+0.018*[#   6]
    |psi|^2 = 0.819
==== e(   3) =     3.36269 eV ==== 
     psi = 0.228*[#   3]+0.228*[#   7]+0.103*[#   2]+0.103*[#   6]+0.083*[#   4]
          +0.083*[#   8]+0.062*[#   1]+0.062*[#   5]
    |psi|^2 = 0.951
==== e(   4) =     4.54416 eV ==== 
     psi = 0.260*[#   4]+0.260*[#   8]+0.130*[#   2]+0.130*[#   6]+0.064*[#   3]
          +0.064*[#   7]+0.006*[#   1]+0.006*[#   5]
    |psi|^2 = 0.920

 k =   0.0642824347 -0.1928473040 -0.3214121733
==== e(   1) =    -4.69947 eV ==== 
     psi = 0.352*[#   1]+0.352*[#   5]+0.105*[#   2]+0.105*[#   6]+0.033*[#   4]
          +0.033*[#   8]+0.007*[#   3]+0.007*[#   7]
    |psi|^2 = 0.995
==== e(   2) =     1.66937 eV ==== 
     psi = 0.172*[#   1]+0.172*[#   5]+0.111*[#   3]+0.111*[#   7]+0.084*[#   4]
          +0.084*[#   8]+0.007*[#   2]+0.007*[#   6]
    |psi|^2 = 0.750
==== e(   3) =     3.61994 eV ==== 
     psi = 0.251*[#   3]+0.251*[#   7]+0.127*[#   2]+0.127*[#   6]+0.110*[#   4]
          +0.110*[#   8]+0.047*[#   1]+0.047*[#   5]
    |psi|^2 = 1.069
==== e(   4) =     4.88930 eV ==== 
     psi = 0.251*[#   4]+0.251*[#   8]+0.111*[#   2]+0.111*[#   6]+0.055*[#   3]
          +0.055*[#   7]+0.011*[#   1]+0.011*[#   5]
    |psi|^2 = 0.856

 k =  -0.0000000000 -0.1285648693 -0.2571297386
==== e(   1) =    -5.21290 eV ==== 
     psi = 0.382*[#   1]+0.382*[#   5]+0.093*[#   2]+0.093*[#   6]+0.021*[#   4]
          +0.021*[#   8]+0.001*[#   3]+0.001*[#   7]
    |psi|^2 = 0.996
==== e(   2) =     2.99141 eV ==== 
     psi = 0.159*[#   1]+0.159*[#   5]+0.081*[#   4]+0.081*[#   8]+0.079*[#   3]
          +0.079*[#   7]+0.001*[#   2]+0.001*[#   6]
    |psi|^2 = 0.639
==== e(   3) =     4.18623 eV ==== 
     psi = 0.291*[#   3]+0.291*[#   7]+0.174*[#   2]+0.174*[#   6]+0.127*[#   4]
          +0.127*[#   8]+0.027*[#   1]+0.027*[#   5]
    |psi|^2 = 1.237
==== e(   4) =     5.20977 eV ==== 
     psi = 0.259*[#   4]+0.259*[#   8]+0.079*[#   2]+0.079*[#   6]+0.060*[#   3]
          +0.060*[#   7]+0.014*[#   1]+0.014*[#   5]
    |psi|^2 = 0.821

 k =  -0.0642824347 -0.0642824347 -0.1928473040
==== e(   1) =    -5.53122 eV ==== 
     psi = 0.418*[#   1]+0.418*[#   5]+0.066*[#   2]+0.066*[#   6]+0.007*[#   3]
          +0.007*[#   4]+0.007*[#   7]+0.007*[#   8]
    |psi|^2 = 0.996
==== e(   2) =     3.84965 eV ==== 
     psi = 0.122*[#   1]+0.122*[#   5]+0.095*[#   3]+0.095*[#   4]+0.095*[#   7]
          +0.095*[#   8]+0.007*[#   2]+0.007*[#   6]
    |psi|^2 = 0.637
==== e(   3) =     5.13966 eV ==== 
     psi = 0.245*[#   3]+0.245*[#   4]+0.245*[#   7]+0.245*[#   8]+0.179*[#   2]
          +0.179*[#   6]
    |psi|^2 = 1.338
==== e(   4) =     5.31966 eV ==== 
     psi = 0.124*[#   3]+0.124*[#   4]+0.124*[#   7]+0.124*[#   8]+0.095*[#   2]
          +0.095*[#   6]+0.032*[#   1]+0.032*[#   5]
    |psi|^2 = 0.749

 k =  -0.1285648693 -0.0000000000 -0.1285648693
==== e(   1) =    -5.63866 eV ==== 
     psi = 0.434*[#   1]+0.434*[#   5]+0.032*[#   2]+0.032*[#   3]+0.032*[#   6]
          +0.032*[#   7]
    |psi|^2 = 0.996
==== e(   2) =     4.22640 eV ==== 
     psi = 0.153*[#   3]+0.153*[#   7]+0.110*[#   1]+0.110*[#   5]+0.074*[#   4]
          +0.074*[#   8]+0.032*[#   2]+0.032*[#   6]
    |psi|^2 = 0.737
==== e(   3) =     5.03191 eV ==== 
     psi = 0.340*[#   4]+0.340*[#   8]+0.153*[#   2]+0.153*[#   6]+0.067*[#   3]
          +0.067*[#   7]+0.015*[#   1]+0.015*[#   5]
    |psi|^2 = 1.150
==== e(   4) =     5.89228 eV ==== 
     psi = 0.243*[#   3]+0.243*[#   7]+0.153*[#   2]+0.153*[#   6]
    |psi|^2 = 0.790

 k =  -0.1285648693  0.0000000000  0.0000000000
==== e(   1) =    -5.78162 eV ==== 
     psi = 0.461*[#   1]+0.461*[#   5]+0.037*[#   3]+0.037*[#   7]
    |psi|^2 = 0.996
==== e(   2) =     5.21341 eV ==== 
     psi = 0.387*[#   3]+0.387*[#   7]+0.099*[#   1]+0.099*[#   5]+0.037*[#   2]
          +0.037*[#   6]
    |psi|^2 = 1.045
==== e(   3) =     5.53768 eV ==== 
     psi = 0.290*[#   8]+0.195*[#   4]
    |psi|^2 = 0.485
==== e(   4) =     5.53768 eV ==== 
     psi = 0.387*[#   2]+0.387*[#   6]+0.292*[#   4]+0.197*[#   8]
    |psi|^2 = 1.262

 k =  -0.1928473040  0.0642824347  0.0642824347
==== e(   1) =    -5.53122 eV ==== 
     psi = 0.418*[#   1]+0.418*[#   5]+0.066*[#   3]+0.066*[#   7]+0.007*[#   2]
          +0.007*[#   4]+0.007*[#   6]+0.007*[#   8]
    |psi|^2 = 0.996
==== e(   2) =     3.84965 eV ==== 
     psi = 0.179*[#   3]+0.179*[#   7]+0.122*[#   1]+0.122*[#   5]+0.095*[#   4]
          +0.095*[#   8]+0.066*[#   2]+0.066*[#   6]
    |psi|^2 = 0.924
==== e(   3) =     5.13966 eV ==== 
     psi = 0.245*[#   4]+0.245*[#   8]+0.095*[#   2]+0.095*[#   6]
    |psi|^2 = 0.679
==== e(   4) =     5.31966 eV ==== 
     psi = 0.209*[#   3]+0.209*[#   7]+0.179*[#   2]+0.179*[#   6]+0.124*[#   4]
          +0.124*[#   8]+0.032*[#   1]+0.032*[#   5]
    |psi|^2 = 1.088

 k =  -0.2571297386  0.1285648693  0.1285648693
==== e(   1) =    -5.07771 eV ==== 
     psi = 0.375*[#   1]+0.375*[#   5]+0.084*[#   3]+0.084*[#   7]+0.020*[#   2]
          +0.020*[#   4]+0.020*[#   6]+0.020*[#   8]
    |psi|^2 = 0.995
==== e(   2) =     2.22496 eV ==== 
     psi = 0.148*[#   1]+0.148*[#   5]+0.126*[#   3]+0.126*[#   7]+0.110*[#   4]
          +0.110*[#   8]+0.084*[#   2]+0.084*[#   6]
    |psi|^2 = 0.935
==== e(   3) =     4.82085 eV ==== 
     psi = 0.246*[#   4]+0.246*[#   8]+0.110*[#   2]+0.110*[#   6]
    |psi|^2 = 0.711
==== e(   4) =     4.94317 eV ==== 
     psi = 0.272*[#   3]+0.272*[#   7]+0.126*[#   2]+0.126*[#   6]+0.086*[#   4]
          +0.086*[#   8]+0.047*[#   1]+0.047*[#   5]
    |psi|^2 = 1.063

 k =  -0.3214121733  0.1928473040  0.1928473040
==== e(   1) =    -4.45480 eV ==== 
     psi = 0.352*[#   1]+0.352*[#   5]+0.087*[#   3]+0.087*[#   7]+0.029*[#   2]
          +0.029*[#   4]+0.029*[#   6]+0.029*[#   8]
    |psi|^2 = 0.995
==== e(   2) =     0.71373 eV ==== 
     psi = 0.156*[#   1]+0.156*[#   5]+0.115*[#   4]+0.115*[#   8]+0.107*[#   3]
          +0.107*[#   7]+0.087*[#   2]+0.087*[#   6]
    |psi|^2 = 0.933
==== e(   3) =     4.55957 eV ==== 
     psi = 0.286*[#   3]+0.286*[#   7]+0.115*[#   2]+0.115*[#   6]+0.077*[#   4]
          +0.077*[#   8]+0.053*[#   1]+0.053*[#   5]
    |psi|^2 = 1.063
==== e(   4) =     4.63497 eV ==== 
     psi = 0.247*[#   4]+0.247*[#   8]+0.107*[#   2]+0.107*[#   6]
    |psi|^2 = 0.708

 k =  -0.3856946079  0.2571297386  0.2571297386
==== e(   1) =    -3.78207 eV ==== 
     psi = 0.359*[#   1]+0.359*[#   5]+0.074*[#   3]+0.074*[#   7]+0.032*[#   2]
          +0.032*[#   4]+0.032*[#   6]+0.032*[#   8]
    |psi|^2 = 0.996
==== e(   2) =    -0.48332 eV ==== 
     psi = 0.142*[#   1]+0.142*[#   5]+0.122*[#   4]+0.122*[#   8]+0.109*[#   3]
          +0.109*[#   7]+0.074*[#   2]+0.074*[#   6]
    |psi|^2 = 0.893
==== e(   3) =     4.26062 eV ==== 
     psi = 0.283*[#   3]+0.283*[#   7]+0.122*[#   2]+0.122*[#   6]+0.079*[#   4]
          +0.079*[#   8]+0.054*[#   1]+0.054*[#   5]
    |psi|^2 = 1.074
==== e(   4) =     4.59588 eV ==== 
     psi = 0.247*[#   4]+0.247*[#   8]+0.109*[#   2]+0.109*[#   6]
    |psi|^2 = 0.712

 k =  -0.4499770426  0.3214121733  0.3214121733
==== e(   1) =    -3.50976 eV ==== 
     psi = 0.374*[#   1]+0.374*[#   5]+0.042*[#   3]+0.042*[#   7]+0.041*[#   2]
          +0.041*[#   4]+0.041*[#   6]+0.041*[#   8]
    |psi|^2 = 0.997
==== e(   2) =    -0.88752 eV ==== 
     psi = 0.130*[#   3]+0.130*[#   7]+0.125*[#   1]+0.125*[#   5]+0.119*[#   4]
          +0.119*[#   8]+0.042*[#   2]+0.042*[#   6]
    |psi|^2 = 0.833
==== e(   3) =     4.08208 eV ==== 
     psi = 0.275*[#   3]+0.275*[#   7]+0.119*[#   2]+0.119*[#   6]+0.084*[#   4]
          +0.084*[#   8]+0.052*[#   1]+0.052*[#   5]
    |psi|^2 = 1.059
==== e(   4) =     4.69870 eV ==== 
     psi = 0.247*[#   4]+0.247*[#   8]+0.130*[#   2]+0.130*[#   6]
    |psi|^2 = 0.754

 k =   0.1928473040 -0.3214121733 -0.3214121733
==== e(   1) =    -3.99691 eV ==== 
     psi = 0.354*[#   1]+0.354*[#   5]+0.059*[#   2]+0.059*[#   4]+0.059*[#   6]
          +0.059*[#   8]+0.026*[#   3]+0.026*[#   7]
    |psi|^2 = 0.996
==== e(   2) =    -0.13430 eV ==== 
     psi = 0.149*[#   1]+0.149*[#   5]+0.134*[#   3]+0.134*[#   7]+0.106*[#   4]
          +0.106*[#   8]+0.026*[#   2]+0.026*[#   6]
    |psi|^2 = 0.830
==== e(   3) =     4.04504 eV ==== 
     psi = 0.267*[#   3]+0.267*[#   7]+0.106*[#   2]+0.106*[#   6]+0.090*[#   4]
          +0.090*[#   8]+0.048*[#   1]+0.048*[#   5]
    |psi|^2 = 1.021
==== e(   4) =     4.92713 eV ==== 
     psi = 0.247*[#   4]+0.247*[#   8]+0.134*[#   2]+0.134*[#   6]
    |psi|^2 = 0.761

 k =   0.1285648693 -0.2571297386 -0.2571297386
==== e(   1) =    -4.67868 eV ==== 
     psi = 0.358*[#   1]+0.358*[#   5]+0.061*[#   2]+0.061*[#   4]+0.061*[#   6]
          +0.061*[#   8]+0.017*[#   3]+0.017*[#   7]
    |psi|^2 = 0.995
==== e(   2) =     1.19752 eV ==== 
     psi = 0.155*[#   1]+0.155*[#   5]+0.127*[#   3]+0.127*[#   7]+0.106*[#   4]
          +0.106*[#   8]+0.017*[#   2]+0.017*[#   6]
    |psi|^2 = 0.811
==== e(   3) =     4.16580 eV ==== 
     psi = 0.264*[#   3]+0.264*[#   7]+0.106*[#   2]+0.106*[#   6]+0.093*[#   4]
          +0.093*[#   8]+0.043*[#   1]+0.043*[#   5]
    |psi|^2 = 1.012
==== e(   4) =     5.25206 eV ==== 
     psi = 0.246*[#   4]+0.246*[#   8]+0.127*[#   2]+0.127*[#   6]
    |psi|^2 = 0.746

 k =   0.0642824347 -0.1928473040 -0.1928473040
==== e(   1) =    -5.25120 eV ==== 
     psi = 0.388*[#   1]+0.388*[#   5]+0.051*[#   2]+0.051*[#   4]+0.051*[#   6]
          +0.051*[#   8]+0.007*[#   3]+0.007*[#   7]
    |psi|^2 = 0.996
==== e(   2) =     2.75157 eV ==== 
     psi = 0.140*[#   1]+0.140*[#   5]+0.119*[#   4]+0.119*[#   8]+0.114*[#   3]
          +0.114*[#   7]+0.007*[#   2]+0.007*[#   6]
    |psi|^2 = 0.760
==== e(   3) =     4.46304 eV ==== 
     psi = 0.277*[#   3]+0.277*[#   7]+0.119*[#   2]+0.119*[#   6]+0.090*[#   4]
          +0.090*[#   8]+0.034*[#   1]+0.034*[#   5]
    |psi|^2 = 1.042
==== e(   4) =     5.61711 eV ==== 
     psi = 0.245*[#   4]+0.245*[#   8]+0.114*[#   2]+0.114*[#   6]
    |psi|^2 = 0.716

 k =  -0.0000000000 -0.1285648693 -0.1285648693
==== e(   1) =    -5.63866 eV ==== 
     psi = 0.434*[#   1]+0.434*[#   5]+0.032*[#   2]+0.032*[#   4]+0.032*[#   6]
          +0.032*[#   8]
    |psi|^2 = 0.996
==== e(   2) =     4.22640 eV ==== 
     psi = 0.153*[#   4]+0.153*[#   8]+0.110*[#   1]+0.110*[#   5]+0.074*[#   3]
          +0.074*[#   7]
    |psi|^2 = 0.675
==== e(   3) =     5.03191 eV ==== 
     psi = 0.340*[#   3]+0.340*[#   7]+0.153*[#   2]+0.153*[#   6]+0.067*[#   4]
          +0.067*[#   8]+0.015*[#   1]+0.015*[#   5]
    |psi|^2 = 1.150
==== e(   4) =     5.89228 eV ==== 
     psi = 0.243*[#   4]+0.243*[#   8]+0.074*[#   2]+0.074*[#   6]
    |psi|^2 = 0.634

 k =  -0.0642824347 -0.0642824347 -0.0642824347
==== e(   1) =    -5.81787 eV ==== 
     psi = 0.470*[#   1]+0.470*[#   5]+0.009*[#   2]+0.009*[#   3]+0.009*[#   4]
          +0.009*[#   6]+0.009*[#   7]+0.009*[#   8]
    |psi|^2 = 0.996
==== e(   2) =     5.03388 eV ==== 
     psi = 0.140*[#   3]+0.140*[#   4]+0.140*[#   7]+0.140*[#   8]+0.067*[#   1]
          +0.067*[#   5]+0.009*[#   2]+0.009*[#   6]
    |psi|^2 = 0.713
==== e(   3) =     5.86617 eV ==== 
     psi = 0.255*[#   3]+0.255*[#   7]+0.228*[#   4]+0.228*[#   8]+0.140*[#   2]
          +0.140*[#   6]
    |psi|^2 = 1.246
==== e(   4) =     5.86617 eV ==== 
     psi = 0.140*[#   2]+0.140*[#   6]+0.094*[#   4]+0.094*[#   8]+0.068*[#   3]
          +0.068*[#   7]
    |psi|^2 = 0.604

Lowdin Charges: 

     Atom #   1: total charge =   3.6319, s =  1.1504, p =  2.4814, 
                 spin up      =   1.8159, s =  0.5752, 
                 spin up      =   1.8159, p =  1.2407, pz=  0.3027, px=  0.4690, py=  0.4690, 
                 spin down    =   1.8159, s =  0.5752, 
                 spin down    =   1.8159, p =  1.2407, pz=  0.3027, px=  0.4690, py=  0.4690, 
                 polarization =  -0.0000, s =  0.0000, p = -0.0000, 
     Atom #   2: total charge =   3.6319, s =  1.1504, p =  2.4814, 
                 spin up      =   1.8159, s =  0.5752, 
                 spin up      =   1.8159, p =  1.2407, pz=  0.3027, px=  0.4690, py=  0.4690, 
                 spin down    =   1.8159, s =  0.5752, 
                 spin down    =   1.8159, p =  1.2407, pz=  0.3027, px=  0.4690, py=  0.4690, 
                 polarization =  -0.0000, s = -0.0000, p = -0.0000, 
     Spilling Parameter:   0.0920

     PROJWFC      :      2.34s CPU      2.91s WALL


   This run was terminated on:  10:54:44  20Aug2024            

=------------------------------------------------------------------------------=
   JOB DONE.
=------------------------------------------------------------------------------=
