
     Program PWSCF v.7.3.1 starts on 21Jun2024 at 18:37: 8 

     This program is part of the open-source Quantum ESPRESSO suite
     for quantum simulation of materials; please cite
         "P. Giannozzi et al., J. Phys.:Condens. Matter 21 395502 (2009);
         "P. Giannozzi et al., J. Phys.:Condens. Matter 29 465901 (2017);
         "P. Giannozzi et al., J. Chem. Phys. 152 154105 (2020);
          URL http://www.quantum-espresso.org", 
     in publications or presentations arising from this work. More details at
     http://www.quantum-espresso.org/quote

     Parallel version (MPI), running on     1 processors

     MPI processes distributed on     1 nodes
     204 MiB available memory on the printing compute node when the environment starts

     Reading input from Al.in

     Current dimensions of program PWSCF are:
     Max number of different atomic species (ntypx) = 10
     Max number of k-points (npk) =  40000
     Max angular momentum in pseudopotentials (lmaxx) =  4
     Message from routine volume:
     axis vectors are left-handed

     Subspace diagonalization in iterative solution of the eigenvalue problem:
     a serial algorithm will be used


     G-vector sticks info
     --------------------
     sticks:   dense  smooth     PW     G-vecs:    dense   smooth      PW
     Sum        1921     955    283                55849    19795    3119

     Using Slab Decomposition



     bravais-lattice index     =            0
     lattice parameter (alat)  =       5.3984  a.u.
     unit-cell volume          =     111.2451 (a.u.)^3
     number of atoms/cell      =            1
     number of atomic types    =            1
     number of electrons       =         3.00
     number of Kohn-Sham states=            6
     kinetic-energy cutoff     =     120.0000  Ry
     charge density cutoff     =     960.0000  Ry
     scf convergence threshold =      2.0E-10
     mixing beta               =       0.4000
     number of iterations used =            8  plain     mixing
     Exchange-correlation= SLA  PW   NOGX NOGC
                           (   1   4   0   0   0   0   0)
     Hubbard projectors: ortho-atomic
     Hubbard parameters of DFT+U (Dudarev formulation) in eV:
     U(Al-3p) =  0.0000

     Internal variables: lda_plus_u =T, lda_plus_u_kind = 0

     celldm(1)=   5.398402  celldm(2)=   0.000000  celldm(3)=   0.000000
     celldm(4)=   0.000000  celldm(5)=   0.000000  celldm(6)=   0.000000

     crystal axes: (cart. coord. in units of alat)
               a(1) = (   0.707107   0.707107   0.000000 )  
               a(2) = (   0.707107   0.000000   0.707107 )  
               a(3) = (   0.000000   0.707107   0.707107 )  

     reciprocal axes: (cart. coord. in units 2 pi/alat)
               b(1) = (  0.707107  0.707107 -0.707107 )  
               b(2) = (  0.707107 -0.707107  0.707107 )  
               b(3) = ( -0.707107  0.707107  0.707107 )  


     PseudoPot. # 1 for Al read from file:
     ./pseudo/Al.upf
     MD5 check sum: ba9f5f198b9667a0d06c5b1d7daf412e
     Pseudo is Norm-conserving + core correction, Zval =  3.0
     Generated using ONCVPSP code by D. R. Hamann
     Using radial grid of 1854 points,  6 beta functions with: 
                l(1) =   0
                l(2) =   0
                l(3) =   1
                l(4) =   1
                l(5) =   2
                l(6) =   2

     atomic species   valence    mass     pseudopotential
     Al                3.00    26.98154     Al( 1.00)

     Starting magnetic structure 
     atomic species   magnetization
     Al              0.000

     No symmetry found


                                    s                        frac. trans.

      isym =  1     identity                                     

 cryst.   s( 1) = (     1          0          0      )
                  (     0          1          0      )
                  (     0          0          1      )

 cart.    s( 1) = (  1.0000000  0.0000000  0.0000000 )
                  (  0.0000000  1.0000000  0.0000000 )
                  (  0.0000000  0.0000000  1.0000000 )


   Cartesian axes

     site n.     atom                  positions (alat units)
         1        Al     tau(   1) = (   0.0000000   0.0000000   0.0000000  )

   Crystallographic axes

     site n.     atom                  positions (cryst. coord.)
         1        Al     tau(   1) = (  0.0000000  0.0000000  0.0000000  )

     number of k points=    27  Marzari-Vanderbilt smearing, width (Ry)=  0.0073
                       cart. coord. in units 2pi/alat
        k(    1) = (   0.0000000   0.0000000   0.0000000), wk =   0.0370370
        k(    2) = (  -0.2357023   0.2357023   0.2357023), wk =   0.0370370
        k(    3) = (   0.2357023  -0.2357023  -0.2357023), wk =   0.0370370
        k(    4) = (   0.2357023  -0.2357023   0.2357023), wk =   0.0370370
        k(    5) = (   0.0000000   0.0000000   0.4714045), wk =   0.0370370
        k(    6) = (   0.4714045  -0.4714045  -0.0000000), wk =   0.0370370
        k(    7) = (  -0.2357023   0.2357023  -0.2357023), wk =   0.0370370
        k(    8) = (  -0.4714045   0.4714045  -0.0000000), wk =   0.0370370
        k(    9) = (   0.0000000   0.0000000  -0.4714045), wk =   0.0370370
        k(   10) = (   0.2357023   0.2357023  -0.2357023), wk =   0.0370370
        k(   11) = (   0.0000000   0.4714045   0.0000000), wk =   0.0370370
        k(   12) = (   0.4714045  -0.0000000  -0.4714045), wk =   0.0370370
        k(   13) = (   0.4714045   0.0000000   0.0000000), wk =   0.0370370
        k(   14) = (   0.2357023   0.2357023   0.2357023), wk =   0.0370370
        k(   15) = (   0.7071068  -0.2357023  -0.2357023), wk =   0.0370370
        k(   16) = (  -0.0000000   0.4714045  -0.4714045), wk =   0.0370370
        k(   17) = (  -0.2357023   0.7071068  -0.2357023), wk =   0.0370370
        k(   18) = (   0.2357023   0.2357023  -0.7071068), wk =   0.0370370
        k(   19) = (  -0.2357023  -0.2357023   0.2357023), wk =   0.0370370
        k(   20) = (  -0.4714045  -0.0000000   0.4714045), wk =   0.0370370
        k(   21) = (   0.0000000  -0.4714045   0.0000000), wk =   0.0370370
        k(   22) = (  -0.0000000  -0.4714045   0.4714045), wk =   0.0370370
        k(   23) = (  -0.2357023  -0.2357023   0.7071068), wk =   0.0370370
        k(   24) = (   0.2357023  -0.7071068   0.2357023), wk =   0.0370370
        k(   25) = (  -0.4714045   0.0000000   0.0000000), wk =   0.0370370
        k(   26) = (  -0.7071068   0.2357023   0.2357023), wk =   0.0370370
        k(   27) = (  -0.2357023  -0.2357023  -0.2357023), wk =   0.0370370

                       cryst. coord.
        k(    1) = (   0.0000000   0.0000000   0.0000000), wk =   0.0370370
        k(    2) = (   0.0000000   0.0000000   0.3333333), wk =   0.0370370
        k(    3) = (   0.0000000   0.0000000  -0.3333333), wk =   0.0370370
        k(    4) = (   0.0000000   0.3333333   0.0000000), wk =   0.0370370
        k(    5) = (   0.0000000   0.3333333   0.3333333), wk =   0.0370370
        k(    6) = (   0.0000000   0.3333333  -0.3333333), wk =   0.0370370
        k(    7) = (   0.0000000  -0.3333333   0.0000000), wk =   0.0370370
        k(    8) = (   0.0000000  -0.3333333   0.3333333), wk =   0.0370370
        k(    9) = (   0.0000000  -0.3333333  -0.3333333), wk =   0.0370370
        k(   10) = (   0.3333333   0.0000000   0.0000000), wk =   0.0370370
        k(   11) = (   0.3333333   0.0000000   0.3333333), wk =   0.0370370
        k(   12) = (   0.3333333   0.0000000  -0.3333333), wk =   0.0370370
        k(   13) = (   0.3333333   0.3333333   0.0000000), wk =   0.0370370
        k(   14) = (   0.3333333   0.3333333   0.3333333), wk =   0.0370370
        k(   15) = (   0.3333333   0.3333333  -0.3333333), wk =   0.0370370
        k(   16) = (   0.3333333  -0.3333333   0.0000000), wk =   0.0370370
        k(   17) = (   0.3333333  -0.3333333   0.3333333), wk =   0.0370370
        k(   18) = (   0.3333333  -0.3333333  -0.3333333), wk =   0.0370370
        k(   19) = (  -0.3333333   0.0000000   0.0000000), wk =   0.0370370
        k(   20) = (  -0.3333333   0.0000000   0.3333333), wk =   0.0370370
        k(   21) = (  -0.3333333   0.0000000  -0.3333333), wk =   0.0370370
        k(   22) = (  -0.3333333   0.3333333   0.0000000), wk =   0.0370370
        k(   23) = (  -0.3333333   0.3333333   0.3333333), wk =   0.0370370
        k(   24) = (  -0.3333333   0.3333333  -0.3333333), wk =   0.0370370
        k(   25) = (  -0.3333333  -0.3333333   0.0000000), wk =   0.0370370
        k(   26) = (  -0.3333333  -0.3333333   0.3333333), wk =   0.0370370
        k(   27) = (  -0.3333333  -0.3333333  -0.3333333), wk =   0.0370370

     Dense  grid:    55849 G-vectors     FFT dimensions: (  54,  54,  54)

     Smooth grid:    19795 G-vectors     FFT dimensions: (  40,  40,  40)

     Dynamical RAM for                 wfc:       0.23 MB

     Dynamical RAM for     wfc (w. buffer):      12.43 MB

     Dynamical RAM for             U proj.:       0.11 MB

     Dynamical RAM for  U proj. (w. buff.):       6.22 MB

     Dynamical RAM for           str. fact:       0.85 MB

     Dynamical RAM for           local pot:       0.00 MB

     Dynamical RAM for          nlocal pot:       0.68 MB

     Dynamical RAM for                qrad:       2.48 MB

     Dynamical RAM for          rho,v,vnew:      12.32 MB

     Dynamical RAM for               rhoin:       4.11 MB

     Dynamical RAM for            rho*nmix:      27.27 MB

     Dynamical RAM for           G-vectors:       3.35 MB

     Dynamical RAM for          h,s,v(r/c):       0.01 MB

     Dynamical RAM for          <psi|beta>:       0.00 MB

     Dynamical RAM for                 psi:       0.45 MB

     Dynamical RAM for                hpsi:       0.45 MB

     Dynamical RAM for      wfcinit/wfcrot:       0.45 MB

     Estimated static dynamical RAM per process >      51.35 MB

     Estimated max dynamical RAM per process >      79.53 MB
     Generating pointlists ...
     new r_m :   0.4125 (alat units)  2.2268 (a.u.) for type    1

     Initial potential from superposition of free atoms

     starting charge       2.9978, renormalised to       3.0000

     HUBBARD ENERGY =    0.0000  (Ry)

     STARTING HUBBARD OCCUPATIONS:

     =================== HUBBARD OCCUPATIONS ===================
     ------------------------ ATOM    1 ------------------------
     Tr[ns(  1)] (up, down, total) =   0.50000  0.50000  1.00000
     Atomic magnetic moment for atom   1 =   0.00000
     SPIN  1
     eigenvalues:
       0.167  0.167  0.167
     eigenvectors (columns):
       1.000  0.000  0.000
       0.000  1.000  0.000
       0.000  0.000  1.000
     occupation matrix ns (before diag.):
       0.167  0.000  0.000
       0.000  0.167  0.000
       0.000  0.000  0.167
     SPIN  2
     eigenvalues:
       0.167  0.167  0.167
     eigenvectors (columns):
       1.000  0.000  0.000
       0.000  1.000  0.000
       0.000  0.000  1.000
     occupation matrix ns (before diag.):
       0.167  0.000  0.000
       0.000  0.167  0.000
       0.000  0.000  0.167

     Number of occupied Hubbard levels =    1.0000

     Atomic wfc used for Hubbard projectors are orthogonalized

     Starting wfcs are    4 randomized atomic wfcs +    2 random wfcs

     total cpu time spent up to now is        1.0 secs

     Self-consistent Calculation

     iteration #  1     ecut=   120.00 Ry     beta= 0.40
     Davidson diagonalization with overlap

---- Real-time Memory Report at c_bands before calling an iterative solver
            73 MiB given to the printing process from OS
             0 MiB allocation reported by mallinfo(arena+hblkhd)
           200 MiB available memory on the node where the printing process lives
------------------
     ethr =  1.00E-02,  avg # of iterations =  7.1
     Minimization algorithm failed to find Fermi energy: reverting to bisection
     Possible cause: smearing is larger than the electronic band-gap.

     =================== HUBBARD OCCUPATIONS ===================
     ------------------------ ATOM    1 ------------------------
     Tr[ns(  1)] (up, down, total) =   1.13105  1.13089  2.26195
     Atomic magnetic moment for atom   1 =   0.00016
     SPIN  1
     eigenvalues:
       0.377  0.377  0.377
     eigenvectors (columns):
       0.652  0.731  0.202
       0.671 -0.431 -0.603
       0.354 -0.529  0.771
     occupation matrix ns (before diag.):
       0.377 -0.000 -0.000
      -0.000  0.377 -0.000
      -0.000 -0.000  0.377
     SPIN  2
     eigenvalues:
       0.377  0.377  0.377
     eigenvectors (columns):
      -0.154  0.403 -0.902
       0.713  0.677  0.181
       0.683 -0.616 -0.392
     occupation matrix ns (before diag.):
       0.377  0.000  0.000
       0.000  0.377 -0.000
       0.000 -0.000  0.377

     Number of occupied Hubbard levels =    2.2619

     Threshold (ethr) on eigenvalues was too large:
     Diagonalizing with lowered threshold

     Davidson diagonalization with overlap

---- Real-time Memory Report at c_bands before calling an iterative solver
            75 MiB given to the printing process from OS
             0 MiB allocation reported by mallinfo(arena+hblkhd)
           201 MiB available memory on the node where the printing process lives
------------------
     ethr =  2.78E-04,  avg # of iterations =  4.1
     Minimization algorithm failed to find Fermi energy: reverting to bisection
     Possible cause: smearing is larger than the electronic band-gap.

     =================== HUBBARD OCCUPATIONS ===================
     ------------------------ ATOM    1 ------------------------
     Tr[ns(  1)] (up, down, total) =   1.13075  1.13076  2.26151
     Atomic magnetic moment for atom   1 =  -0.00001
     SPIN  1
     eigenvalues:
       0.377  0.377  0.377
     eigenvectors (columns):
       0.530  0.778 -0.338
       0.750 -0.616 -0.241
       0.395  0.126  0.910
     occupation matrix ns (before diag.):
       0.377 -0.000 -0.000
      -0.000  0.377 -0.000
      -0.000 -0.000  0.377
     SPIN  2
     eigenvalues:
       0.377  0.377  0.377
     eigenvectors (columns):
       0.880  0.468 -0.077
      -0.445  0.759 -0.475
      -0.163  0.452  0.877
     occupation matrix ns (before diag.):
       0.377  0.000  0.000
       0.000  0.377 -0.000
       0.000 -0.000  0.377

     Number of occupied Hubbard levels =    2.2615

     HUBBARD ENERGY =    0.0000  (Ry)

     total cpu time spent up to now is        3.4 secs

     total energy              =      -4.68340841 Ry
     estimated scf accuracy    <       0.00814612 Ry

     total magnetization       =    -0.00 Bohr mag/cell
     absolute magnetization    =     0.00 Bohr mag/cell

     iteration #  2     ecut=   120.00 Ry     beta= 0.40
     Davidson diagonalization with overlap

---- Real-time Memory Report at c_bands before calling an iterative solver
            85 MiB given to the printing process from OS
             0 MiB allocation reported by mallinfo(arena+hblkhd)
           190 MiB available memory on the node where the printing process lives
------------------
     ethr =  2.72E-04,  avg # of iterations =  1.0
     Minimization algorithm failed to find Fermi energy: reverting to bisection
     Possible cause: smearing is larger than the electronic band-gap.

     =================== HUBBARD OCCUPATIONS ===================
     ------------------------ ATOM    1 ------------------------
     Tr[ns(  1)] (up, down, total) =   1.12910  1.12911  2.25821
     Atomic magnetic moment for atom   1 =  -0.00002
     SPIN  1
     eigenvalues:
       0.376  0.376  0.376
     eigenvectors (columns):
       0.410  0.695 -0.590
       0.335  0.487  0.807
       0.848 -0.528 -0.033
     occupation matrix ns (before diag.):
       0.376 -0.000 -0.000
      -0.000  0.376 -0.000
      -0.000 -0.000  0.376
     SPIN  2
     eigenvalues:
       0.376  0.376  0.376
     eigenvectors (columns):
       0.829  0.552  0.089
      -0.487  0.634  0.601
      -0.275  0.542 -0.794
     occupation matrix ns (before diag.):
       0.376  0.000  0.000
       0.000  0.376 -0.000
       0.000 -0.000  0.376

     Number of occupied Hubbard levels =    2.2582

     HUBBARD ENERGY =    0.0000  (Ry)

     total cpu time spent up to now is        4.1 secs

     total energy              =      -4.68266524 Ry
     estimated scf accuracy    <       0.00274912 Ry

     total magnetization       =    -0.00 Bohr mag/cell
     absolute magnetization    =     0.00 Bohr mag/cell

     iteration #  3     ecut=   120.00 Ry     beta= 0.40
     Davidson diagonalization with overlap

---- Real-time Memory Report at c_bands before calling an iterative solver
            86 MiB given to the printing process from OS
             0 MiB allocation reported by mallinfo(arena+hblkhd)
           204 MiB available memory on the node where the printing process lives
------------------
     ethr =  9.16E-05,  avg # of iterations =  1.3
     Minimization algorithm failed to find Fermi energy: reverting to bisection
     Possible cause: smearing is larger than the electronic band-gap.

     =================== HUBBARD OCCUPATIONS ===================
     ------------------------ ATOM    1 ------------------------
     Tr[ns(  1)] (up, down, total) =   1.12692  1.12695  2.25387
     Atomic magnetic moment for atom   1 =  -0.00003
     SPIN  1
     eigenvalues:
       0.376  0.376  0.376
     eigenvectors (columns):
       0.299 -0.349 -0.888
       0.141  0.937 -0.321
       0.944 -0.029  0.329
     occupation matrix ns (before diag.):
       0.376  0.000 -0.000
       0.000  0.376 -0.000
      -0.000 -0.000  0.376
     SPIN  2
     eigenvalues:
       0.376  0.376  0.376
     eigenvectors (columns):
       0.998  0.006 -0.062
       0.001 -0.998 -0.067
       0.062 -0.067  0.996
     occupation matrix ns (before diag.):
       0.376  0.000 -0.000
       0.000  0.376 -0.000
      -0.000 -0.000  0.376

     Number of occupied Hubbard levels =    2.2539

     HUBBARD ENERGY =    0.0000  (Ry)

     total cpu time spent up to now is        4.7 secs

     total energy              =      -4.68272194 Ry
     estimated scf accuracy    <       0.00000378 Ry

     total magnetization       =    -0.00 Bohr mag/cell
     absolute magnetization    =     0.00 Bohr mag/cell

     iteration #  4     ecut=   120.00 Ry     beta= 0.40
     Davidson diagonalization with overlap

---- Real-time Memory Report at c_bands before calling an iterative solver
            87 MiB given to the printing process from OS
             0 MiB allocation reported by mallinfo(arena+hblkhd)
           204 MiB available memory on the node where the printing process lives
------------------
     ethr =  1.26E-07,  avg # of iterations =  4.6
     Minimization algorithm failed to find Fermi energy: reverting to bisection
     Possible cause: smearing is larger than the electronic band-gap.

     =================== HUBBARD OCCUPATIONS ===================
     ------------------------ ATOM    1 ------------------------
     Tr[ns(  1)] (up, down, total) =   1.12694  1.12700  2.25394
     Atomic magnetic moment for atom   1 =  -0.00006
     SPIN  1
     eigenvalues:
       0.376  0.376  0.376
     eigenvectors (columns):
      -0.125  0.246 -0.961
      -0.036  0.967  0.252
       0.991  0.066 -0.113
     occupation matrix ns (before diag.):
       0.376 -0.000  0.000
      -0.000  0.376  0.000
       0.000  0.000  0.376
     SPIN  2
     eigenvalues:
       0.376  0.376  0.376
     eigenvectors (columns):
       0.806  0.584 -0.094
       0.586 -0.810 -0.013
       0.084  0.045  0.995
     occupation matrix ns (before diag.):
       0.376 -0.000 -0.000
      -0.000  0.376 -0.000
      -0.000 -0.000  0.376

     Number of occupied Hubbard levels =    2.2539

     HUBBARD ENERGY =    0.0000  (Ry)

     total cpu time spent up to now is        5.7 secs

     total energy              =      -4.68272623 Ry
     estimated scf accuracy    <       0.00000011 Ry

     total magnetization       =    -0.00 Bohr mag/cell
     absolute magnetization    =     0.00 Bohr mag/cell

     iteration #  5     ecut=   120.00 Ry     beta= 0.40
     Davidson diagonalization with overlap

---- Real-time Memory Report at c_bands before calling an iterative solver
            89 MiB given to the printing process from OS
             0 MiB allocation reported by mallinfo(arena+hblkhd)
           201 MiB available memory on the node where the printing process lives
------------------
     ethr =  3.72E-09,  avg # of iterations =  1.8
     Minimization algorithm failed to find Fermi energy: reverting to bisection
     Possible cause: smearing is larger than the electronic band-gap.

     =================== HUBBARD OCCUPATIONS ===================
     ------------------------ ATOM    1 ------------------------
     Tr[ns(  1)] (up, down, total) =   1.12694  1.12703  2.25396
     Atomic magnetic moment for atom   1 =  -0.00009
     SPIN  1
     eigenvalues:
       0.376  0.376  0.376
     eigenvectors (columns):
      -0.062  0.128 -0.990
      -0.040  0.991  0.130
       0.997  0.048 -0.056
     occupation matrix ns (before diag.):
       0.376 -0.000  0.000
      -0.000  0.376  0.000
       0.000  0.000  0.376
     SPIN  2
     eigenvalues:
       0.376  0.376  0.376
     eigenvectors (columns):
       0.874  0.483 -0.050
       0.478 -0.874 -0.092
       0.088 -0.056  0.994
     occupation matrix ns (before diag.):
       0.376 -0.000 -0.000
      -0.000  0.376 -0.000
      -0.000 -0.000  0.376

     Number of occupied Hubbard levels =    2.2540

     HUBBARD ENERGY =    0.0000  (Ry)

     total cpu time spent up to now is        6.4 secs

     total energy              =      -4.68272625 Ry
     estimated scf accuracy    <          3.7E-09 Ry

     total magnetization       =    -0.00 Bohr mag/cell
     absolute magnetization    =     0.00 Bohr mag/cell

     iteration #  6     ecut=   120.00 Ry     beta= 0.40
     Davidson diagonalization with overlap

---- Real-time Memory Report at c_bands before calling an iterative solver
            90 MiB given to the printing process from OS
             0 MiB allocation reported by mallinfo(arena+hblkhd)
           200 MiB available memory on the node where the printing process lives
------------------
     ethr =  1.23E-10,  avg # of iterations =  2.0
     Minimization algorithm failed to find Fermi energy: reverting to bisection
     Possible cause: smearing is larger than the electronic band-gap.

     =================== HUBBARD OCCUPATIONS ===================
     ------------------------ ATOM    1 ------------------------
     Tr[ns(  1)] (up, down, total) =   1.12690  1.12705  2.25395
     Atomic magnetic moment for atom   1 =  -0.00014
     SPIN  1
     eigenvalues:
       0.376  0.376  0.376
     eigenvectors (columns):
      -0.025 -0.013 -1.000
      -0.054  0.998 -0.012
       0.998  0.054 -0.026
     occupation matrix ns (before diag.):
       0.376  0.000  0.000
       0.000  0.376  0.000
       0.000  0.000  0.376
     SPIN  2
     eigenvalues:
       0.376  0.376  0.376
     eigenvectors (columns):
       0.979  0.203 -0.032
       0.201 -0.978 -0.060
       0.044 -0.053  0.998
     occupation matrix ns (before diag.):
       0.376 -0.000 -0.000
      -0.000  0.376 -0.000
      -0.000 -0.000  0.376

     Number of occupied Hubbard levels =    2.2540

     HUBBARD ENERGY =    0.0000  (Ry)

     total cpu time spent up to now is        7.1 secs

     total energy              =      -4.68272625 Ry
     estimated scf accuracy    <          1.0E-09 Ry

     total magnetization       =    -0.00 Bohr mag/cell
     absolute magnetization    =     0.00 Bohr mag/cell

     iteration #  7     ecut=   120.00 Ry     beta= 0.40
     Davidson diagonalization with overlap

---- Real-time Memory Report at c_bands before calling an iterative solver
            92 MiB given to the printing process from OS
             0 MiB allocation reported by mallinfo(arena+hblkhd)
           198 MiB available memory on the node where the printing process lives
------------------
     ethr =  3.41E-11,  avg # of iterations =  1.1
     Minimization algorithm failed to find Fermi energy: reverting to bisection
     Possible cause: smearing is larger than the electronic band-gap.

     =================== HUBBARD OCCUPATIONS ===================
     ------------------------ ATOM    1 ------------------------
     Tr[ns(  1)] (up, down, total) =   1.12693  1.12702  2.25395
     Atomic magnetic moment for atom   1 =  -0.00009
     SPIN  1
     eigenvalues:
       0.376  0.376  0.376
     eigenvectors (columns):
      -0.027  0.035 -0.999
      -0.060  0.998  0.037
       0.998  0.061 -0.025
     occupation matrix ns (before diag.):
       0.376 -0.000  0.000
      -0.000  0.376  0.000
       0.000  0.000  0.376
     SPIN  2
     eigenvalues:
       0.376  0.376  0.376
     eigenvectors (columns):
       0.959  0.281 -0.032
       0.278 -0.958 -0.074
       0.052 -0.062  0.997
     occupation matrix ns (before diag.):
       0.376 -0.000 -0.000
      -0.000  0.376 -0.000
      -0.000 -0.000  0.376

     Number of occupied Hubbard levels =    2.2540

     HUBBARD ENERGY =    0.0000  (Ry)

     total cpu time spent up to now is        7.7 secs

     total energy              =      -4.68272625 Ry
     estimated scf accuracy    <          2.1E-09 Ry

     total magnetization       =    -0.00 Bohr mag/cell
     absolute magnetization    =     0.00 Bohr mag/cell

     iteration #  8     ecut=   120.00 Ry     beta= 0.40
     Davidson diagonalization with overlap

---- Real-time Memory Report at c_bands before calling an iterative solver
            93 MiB given to the printing process from OS
             0 MiB allocation reported by mallinfo(arena+hblkhd)
           198 MiB available memory on the node where the printing process lives
------------------
     ethr =  3.41E-11,  avg # of iterations =  1.0
     Minimization algorithm failed to find Fermi energy: reverting to bisection
     Possible cause: smearing is larger than the electronic band-gap.

     =================== HUBBARD OCCUPATIONS ===================
     ------------------------ ATOM    1 ------------------------
     Tr[ns(  1)] (up, down, total) =   1.12697  1.12698  2.25395
     Atomic magnetic moment for atom   1 =  -0.00000
     SPIN  1
     eigenvalues:
       0.376  0.376  0.376
     eigenvectors (columns):
      -0.021 -0.158 -0.987
      -0.049  0.986 -0.157
       0.999  0.045 -0.029
     occupation matrix ns (before diag.):
       0.376  0.000  0.000
       0.000  0.376  0.000
       0.000  0.000  0.376
     SPIN  2
     eigenvalues:
       0.376  0.376  0.376
     eigenvectors (columns):
       1.000 -0.021 -0.018
       0.020  0.999 -0.039
       0.018  0.039  0.999
     occupation matrix ns (before diag.):
       0.376 -0.000 -0.000
      -0.000  0.376 -0.000
      -0.000 -0.000  0.376

     Number of occupied Hubbard levels =    2.2540

     HUBBARD ENERGY =    0.0000  (Ry)

     Magnetic moment per site  (integrated on atomic sphere of radius R)
     atom   1 (R=0.413)  charge=  1.7286  magn= -0.0000

     total cpu time spent up to now is        8.4 secs

     End of self-consistent calculation

 ------ SPIN UP ------------


          k = 0.0000 0.0000 0.0000 (  2445 PWs)   bands (ev):

    -3.3803  20.3127  20.3127  21.5798  21.5798  21.5798

     occupation numbers 
     1.0000   0.0000   0.0000   0.0000   0.0000   0.0000

          k =-0.2357 0.2357 0.2357 (  2473 PWs)   bands (ev):

    -0.3961   8.2231  18.3949  18.3949  20.9716  20.9716

     occupation numbers 
     1.0000   0.0005   0.0000   0.0000   0.0000   0.0000

          k = 0.2357-0.2357-0.2357 (  2473 PWs)   bands (ev):

    -0.3961   8.2231  18.3949  18.3949  20.9716  20.9716

     occupation numbers 
     1.0000   0.0005   0.0000   0.0000   0.0000   0.0000

          k = 0.2357-0.2357 0.2357 (  2473 PWs)   bands (ev):

    -0.3961   8.2231  18.3949  18.3949  20.9716  20.9716

     occupation numbers 
     1.0000   0.0005   0.0000   0.0000   0.0000   0.0000

          k = 0.0000 0.0000 0.4714 (  2465 PWs)   bands (ev):

     0.5830  12.0888  14.0424  14.1108  14.1108  17.5513

     occupation numbers 
     1.0000   0.0000   0.0000   0.0000   0.0000   0.0000

          k = 0.4714-0.4714-0.0000 (  2460 PWs)   bands (ev):

     4.4367   6.6778   8.0832  14.9737  16.7766  26.2188

     occupation numbers 
     1.0000   1.0000   0.1246   0.0000   0.0000   0.0000

          k =-0.2357 0.2357-0.2357 (  2473 PWs)   bands (ev):

    -0.3961   8.2231  18.3949  18.3949  20.9716  20.9716

     occupation numbers 
     1.0000   0.0005   0.0000   0.0000   0.0000   0.0000

          k =-0.4714 0.4714-0.0000 (  2460 PWs)   bands (ev):

     4.4367   6.6778   8.0832  14.9737  16.7766  26.2188

     occupation numbers 
     1.0000   1.0000   0.1246   0.0000   0.0000   0.0000

          k = 0.0000 0.0000-0.4714 (  2465 PWs)   bands (ev):

     0.5830  12.0888  14.0424  14.1108  14.1108  17.5513

     occupation numbers 
     1.0000   0.0000   0.0000   0.0000   0.0000   0.0000

          k = 0.2357 0.2357-0.2357 (  2473 PWs)   bands (ev):

    -0.3961   8.2231  18.3949  18.3949  20.9716  20.9716

     occupation numbers 
     1.0000   0.0005   0.0000   0.0000   0.0000   0.0000

          k = 0.0000 0.4714 0.0000 (  2465 PWs)   bands (ev):

     0.5830  12.0888  14.0424  14.1108  14.1108  17.5514

     occupation numbers 
     1.0000   0.0000   0.0000   0.0000   0.0000   0.0000

          k = 0.4714-0.0000-0.4714 (  2460 PWs)   bands (ev):

     4.4367   6.6778   8.0832  14.9737  16.7766  26.2189

     occupation numbers 
     1.0000   1.0000   0.1247   0.0000   0.0000   0.0000

          k = 0.4714 0.0000 0.0000 (  2465 PWs)   bands (ev):

     0.5830  12.0888  14.0424  14.1108  14.1108  17.5513

     occupation numbers 
     1.0000   0.0000   0.0000   0.0000   0.0000   0.0000

          k = 0.2357 0.2357 0.2357 (  2473 PWs)   bands (ev):

    -0.3961   8.2231  18.3949  18.3949  20.9716  20.9716

     occupation numbers 
     1.0000   0.0005   0.0000   0.0000   0.0000   0.0000

          k = 0.7071-0.2357-0.2357 (  2460 PWs)   bands (ev):

     4.4367   6.6778   8.0832  14.9737  16.7766  26.2188

     occupation numbers 
     1.0000   1.0000   0.1247   0.0000   0.0000   0.0000

          k =-0.0000 0.4714-0.4714 (  2460 PWs)   bands (ev):

     4.4367   6.6778   8.0832  14.9737  16.7766  26.2189

     occupation numbers 
     1.0000   1.0000   0.1247   0.0000   0.0000   0.0000

          k =-0.2357 0.7071-0.2357 (  2460 PWs)   bands (ev):

     4.4367   6.6778   8.0832  14.9737  16.7766  26.2189

     occupation numbers 
     1.0000   1.0000   0.1247   0.0000   0.0000   0.0000

          k = 0.2357 0.2357-0.7071 (  2460 PWs)   bands (ev):

     4.4367   6.6778   8.0832  14.9737  16.7766  26.2188

     occupation numbers 
     1.0000   1.0000   0.1246   0.0000   0.0000   0.0000

          k =-0.2357-0.2357 0.2357 (  2473 PWs)   bands (ev):

    -0.3961   8.2231  18.3949  18.3949  20.9716  20.9716

     occupation numbers 
     1.0000   0.0005   0.0000   0.0000   0.0000   0.0000

          k =-0.4714-0.0000 0.4714 (  2460 PWs)   bands (ev):

     4.4367   6.6778   8.0832  14.9737  16.7766  26.2189

     occupation numbers 
     1.0000   1.0000   0.1247   0.0000   0.0000   0.0000

          k = 0.0000-0.4714 0.0000 (  2465 PWs)   bands (ev):

     0.5830  12.0888  14.0424  14.1108  14.1108  17.5514

     occupation numbers 
     1.0000   0.0000   0.0000   0.0000   0.0000   0.0000

          k =-0.0000-0.4714 0.4714 (  2460 PWs)   bands (ev):

     4.4367   6.6778   8.0832  14.9737  16.7766  26.2189

     occupation numbers 
     1.0000   1.0000   0.1247   0.0000   0.0000   0.0000

          k =-0.2357-0.2357 0.7071 (  2460 PWs)   bands (ev):

     4.4367   6.6778   8.0832  14.9737  16.7766  26.2188

     occupation numbers 
     1.0000   1.0000   0.1246   0.0000   0.0000   0.0000

          k = 0.2357-0.7071 0.2357 (  2460 PWs)   bands (ev):

     4.4367   6.6778   8.0832  14.9737  16.7766  26.2190

     occupation numbers 
     1.0000   1.0000   0.1247   0.0000   0.0000   0.0000

          k =-0.4714 0.0000 0.0000 (  2465 PWs)   bands (ev):

     0.5830  12.0888  14.0424  14.1108  14.1108  17.5513

     occupation numbers 
     1.0000   0.0000   0.0000   0.0000   0.0000   0.0000

          k =-0.7071 0.2357 0.2357 (  2460 PWs)   bands (ev):

     4.4367   6.6778   8.0832  14.9737  16.7766  26.2189

     occupation numbers 
     1.0000   1.0000   0.1247   0.0000   0.0000   0.0000

          k =-0.2357-0.2357-0.2357 (  2473 PWs)   bands (ev):

    -0.3961   8.2231  18.3949  18.3949  20.9716  20.9716

     occupation numbers 
     1.0000   0.0005   0.0000   0.0000   0.0000   0.0000

 ------ SPIN DOWN ----------


          k = 0.0000 0.0000 0.0000 (  2445 PWs)   bands (ev):

    -3.3803  20.3127  20.3127  21.5798  21.5798  21.5798

     occupation numbers 
     1.0000   0.0000   0.0000   0.0000   0.0000   0.0000

          k =-0.2357 0.2357 0.2357 (  2473 PWs)   bands (ev):

    -0.3961   8.2230  18.3949  18.3949  20.9715  20.9716

     occupation numbers 
     1.0000   0.0005   0.0000   0.0000   0.0000   0.0000

          k = 0.2357-0.2357-0.2357 (  2473 PWs)   bands (ev):

    -0.3961   8.2230  18.3949  18.3949  20.9716  20.9716

     occupation numbers 
     1.0000   0.0005   0.0000   0.0000   0.0000   0.0000

          k = 0.2357-0.2357 0.2357 (  2473 PWs)   bands (ev):

    -0.3961   8.2230  18.3949  18.3949  20.9716  20.9716

     occupation numbers 
     1.0000   0.0005   0.0000   0.0000   0.0000   0.0000

          k = 0.0000 0.0000 0.4714 (  2465 PWs)   bands (ev):

     0.5830  12.0888  14.0424  14.1107  14.1108  17.5513

     occupation numbers 
     1.0000   0.0000   0.0000   0.0000   0.0000   0.0000

          k = 0.4714-0.4714-0.0000 (  2460 PWs)   bands (ev):

     4.4367   6.6778   8.0832  14.9737  16.7766  26.2188

     occupation numbers 
     1.0000   1.0000   0.1247   0.0000   0.0000   0.0000

          k =-0.2357 0.2357-0.2357 (  2473 PWs)   bands (ev):

    -0.3961   8.2230  18.3949  18.3949  20.9715  20.9716

     occupation numbers 
     1.0000   0.0005   0.0000   0.0000   0.0000   0.0000

          k =-0.4714 0.4714-0.0000 (  2460 PWs)   bands (ev):

     4.4367   6.6778   8.0832  14.9737  16.7766  26.2189

     occupation numbers 
     1.0000   1.0000   0.1247   0.0000   0.0000   0.0000

          k = 0.0000 0.0000-0.4714 (  2465 PWs)   bands (ev):

     0.5830  12.0888  14.0424  14.1107  14.1108  17.5513

     occupation numbers 
     1.0000   0.0000   0.0000   0.0000   0.0000   0.0000

          k = 0.2357 0.2357-0.2357 (  2473 PWs)   bands (ev):

    -0.3961   8.2230  18.3949  18.3949  20.9715  20.9716

     occupation numbers 
     1.0000   0.0005   0.0000   0.0000   0.0000   0.0000

          k = 0.0000 0.4714 0.0000 (  2465 PWs)   bands (ev):

     0.5830  12.0888  14.0424  14.1108  14.1108  17.5513

     occupation numbers 
     1.0000   0.0000   0.0000   0.0000   0.0000   0.0000

          k = 0.4714-0.0000-0.4714 (  2460 PWs)   bands (ev):

     4.4367   6.6777   8.0832  14.9737  16.7766  26.2188

     occupation numbers 
     1.0000   1.0000   0.1247   0.0000   0.0000   0.0000

          k = 0.4714 0.0000 0.0000 (  2465 PWs)   bands (ev):

     0.5830  12.0888  14.0424  14.1107  14.1108  17.5513

     occupation numbers 
     1.0000   0.0000   0.0000   0.0000   0.0000   0.0000

          k = 0.2357 0.2357 0.2357 (  2473 PWs)   bands (ev):

    -0.3961   8.2230  18.3949  18.3949  20.9716  20.9716

     occupation numbers 
     1.0000   0.0005   0.0000   0.0000   0.0000   0.0000

          k = 0.7071-0.2357-0.2357 (  2460 PWs)   bands (ev):

     4.4367   6.6778   8.0832  14.9737  16.7766  26.2189

     occupation numbers 
     1.0000   1.0000   0.1247   0.0000   0.0000   0.0000

          k =-0.0000 0.4714-0.4714 (  2460 PWs)   bands (ev):

     4.4367   6.6778   8.0832  14.9737  16.7766  26.2188

     occupation numbers 
     1.0000   1.0000   0.1247   0.0000   0.0000   0.0000

          k =-0.2357 0.7071-0.2357 (  2460 PWs)   bands (ev):

     4.4367   6.6777   8.0832  14.9737  16.7766  26.2188

     occupation numbers 
     1.0000   1.0000   0.1247   0.0000   0.0000   0.0000

          k = 0.2357 0.2357-0.7071 (  2460 PWs)   bands (ev):

     4.4367   6.6778   8.0832  14.9737  16.7766  26.2188

     occupation numbers 
     1.0000   1.0000   0.1247   0.0000   0.0000   0.0000

          k =-0.2357-0.2357 0.2357 (  2473 PWs)   bands (ev):

    -0.3961   8.2230  18.3949  18.3949  20.9715  20.9716

     occupation numbers 
     1.0000   0.0005   0.0000   0.0000   0.0000   0.0000

          k =-0.4714-0.0000 0.4714 (  2460 PWs)   bands (ev):

     4.4367   6.6777   8.0832  14.9737  16.7766  26.2189

     occupation numbers 
     1.0000   1.0000   0.1247   0.0000   0.0000   0.0000

          k = 0.0000-0.4714 0.0000 (  2465 PWs)   bands (ev):

     0.5830  12.0888  14.0424  14.1108  14.1108  17.5513

     occupation numbers 
     1.0000   0.0000   0.0000   0.0000   0.0000   0.0000

          k =-0.0000-0.4714 0.4714 (  2460 PWs)   bands (ev):

     4.4367   6.6778   8.0832  14.9737  16.7766  26.2188

     occupation numbers 
     1.0000   1.0000   0.1247   0.0000   0.0000   0.0000

          k =-0.2357-0.2357 0.7071 (  2460 PWs)   bands (ev):

     4.4367   6.6778   8.0832  14.9737  16.7766  26.2189

     occupation numbers 
     1.0000   1.0000   0.1247   0.0000   0.0000   0.0000

          k = 0.2357-0.7071 0.2357 (  2460 PWs)   bands (ev):

     4.4367   6.6777   8.0832  14.9737  16.7766  26.2189

     occupation numbers 
     1.0000   1.0000   0.1247   0.0000   0.0000   0.0000

          k =-0.4714 0.0000 0.0000 (  2465 PWs)   bands (ev):

     0.5830  12.0888  14.0424  14.1107  14.1108  17.5513

     occupation numbers 
     1.0000   0.0000   0.0000   0.0000   0.0000   0.0000

          k =-0.7071 0.2357 0.2357 (  2460 PWs)   bands (ev):

     4.4367   6.6778   8.0832  14.9737  16.7766  26.2188

     occupation numbers 
     1.0000   1.0000   0.1247   0.0000   0.0000   0.0000

          k =-0.2357-0.2357-0.2357 (  2473 PWs)   bands (ev):

    -0.3961   8.2230  18.3949  18.3949  20.9715  20.9716

     occupation numbers 
     1.0000   0.0005   0.0000   0.0000   0.0000   0.0000

     the Fermi energy is     8.0297 ev

!    total energy              =      -4.68272625 Ry
     estimated scf accuracy    <          6.5E-11 Ry
     smearing contrib. (-TS)   =      -0.00069606 Ry
     internal energy E=F+TS    =      -4.68203019 Ry

     The total energy is F=E-TS. E is the sum of the following terms:
     one-electron contribution =       2.93714107 Ry
     hartree contribution      =       0.01099688 Ry
     xc contribution           =      -2.22525758 Ry
     ewald contribution        =      -5.40491107 Ry
     Hubbard energy            =       0.00000052 Ry

     total magnetization       =    -0.00 Bohr mag/cell
     absolute magnetization    =     0.00 Bohr mag/cell

     convergence has been achieved in   8 iterations

     Forces acting on atoms (cartesian axes, Ry/au):

     atom    1 type  1   force =     0.00000000    0.00000000    0.00000000
     The non-local contrib.  to forces
     atom    1 type  1   force =     0.00000017    0.00000004    0.00000023
     The ionic contribution  to forces
     atom    1 type  1   force =    -0.00000000   -0.00000000   -0.00000000
     The local contribution  to forces
     atom    1 type  1   force =    -0.00000013   -0.00000003   -0.00000019
     The core correction contribution to forces
     atom    1 type  1   force =    -0.00000001   -0.00000000   -0.00000001
     The Hubbard contrib.    to forces
     atom    1 type  1   force =    -0.00000000   -0.00000000   -0.00000000
     The SCF correction term to forces
     atom    1 type  1   force =     0.00000001    0.00000000   -0.00000000

     Total force =     0.000000     Total SCF correction =     0.000000


     Computing stress (Cartesian axis) and pressure

          total   stress  (Ry/bohr**3)                   (kbar)     P=      -45.62
  -0.00031015  -0.00000000   0.00000000          -45.62       -0.00        0.00
  -0.00000000  -0.00031014   0.00000000           -0.00      -45.62        0.00
   0.00000000   0.00000000  -0.00031014            0.00        0.00      -45.62

     kinetic stress (kbar)   1565.16     -0.00      0.00
                               -0.00   1565.16      0.00
                                0.00      0.00   1565.16

     local   stress (kbar)     94.07     -0.00      0.00
                               -0.00     94.07      0.00
                                0.00      0.00     94.07

     nonloc. stress (kbar)   1473.60      0.00     -0.00
                                0.00   1473.60     -0.00
                               -0.00     -0.00   1473.60

     hartree stress (kbar)      4.85      0.00     -0.00
                                0.00      4.85     -0.00
                               -0.00     -0.00      4.85

     exc-cor stress (kbar)     55.08      0.00      0.00
                                0.00     55.08      0.00
                                0.00      0.00     55.08

     corecor stress (kbar)   -855.99     -0.00      0.00
                               -0.00   -855.99      0.00
                                0.00      0.00   -855.99

     ewald   stress (kbar)  -2382.40      0.00      0.00
                                0.00  -2382.40      0.00
                                0.00      0.00  -2382.40

     hubbard stress (kbar)      0.00     -0.00      0.00
                               -0.00      0.00      0.00
                                0.00      0.00      0.00

     DFT-D   stress (kbar)      0.00      0.00      0.00
                                0.00      0.00      0.00
                                0.00      0.00      0.00

     XDM     stress (kbar)      0.00      0.00      0.00
                                0.00      0.00      0.00
                                0.00      0.00      0.00

     dft-nl  stress (kbar)      0.00      0.00      0.00
                                0.00      0.00      0.00
                                0.00      0.00      0.00

     TS-vdW  stress (kbar)      0.00      0.00      0.00
                                0.00      0.00      0.00
                                0.00      0.00      0.00

     MDB     stress (kbar)      0.00      0.00      0.00
                                0.00      0.00      0.00
                                0.00      0.00      0.00

     3D-RISM stress (kbar)      0.00      0.00      0.00
                                0.00      0.00      0.00
                                0.00      0.00      0.00


     Writing all to output data dir ./out/aiida.save/ :
     XML data file, charge density, pseudopotentials, collected wavefunctions

     init_run     :      0.95s CPU      0.98s WALL (       1 calls)
     electrons    :      7.23s CPU      7.38s WALL (       1 calls)
     forces       :      0.19s CPU      0.19s WALL (       1 calls)
     stress       :      0.89s CPU      0.90s WALL (       1 calls)

     Called by init_run:
     wfcinit      :      0.44s CPU      0.46s WALL (       1 calls)
     wfcinit:atom :      0.01s CPU      0.01s WALL (      54 calls)
     wfcinit:wfcr :      0.34s CPU      0.35s WALL (      54 calls)
     potinit      :      0.23s CPU      0.23s WALL (       1 calls)
     hinit0       :      0.26s CPU      0.26s WALL (       1 calls)

     Called by electrons:
     c_bands      :      5.93s CPU      5.99s WALL (       9 calls)
     sum_band     :      1.02s CPU      1.03s WALL (       9 calls)
     v_of_rho     :      0.19s CPU      0.19s WALL (       9 calls)
     v_h          :      0.02s CPU      0.02s WALL (       9 calls)
     v_xc         :      0.21s CPU      0.21s WALL (      11 calls)
     mix_rho      :      0.07s CPU      0.13s WALL (       9 calls)

     Called by c_bands:
     init_us_2    :      0.47s CPU      0.47s WALL (    1296 calls)
     cegterg      :      5.36s CPU      5.41s WALL (     486 calls)

     Called by sum_band:
     sum_band:wei :      0.00s CPU      0.00s WALL (       9 calls)
     sum_band:loo :      0.95s CPU      0.95s WALL (       9 calls)
     sum_band:buf :      0.01s CPU      0.01s WALL (     486 calls)
     sum_band:ini :      0.17s CPU      0.17s WALL (     486 calls)

     Called by *egterg:
     cdiaghg      :      0.06s CPU      0.06s WALL (    1723 calls)
     cegterg:over :      0.21s CPU      0.21s WALL (    1291 calls)
     cegterg:upda :      0.12s CPU      0.12s WALL (    1291 calls)
     cegterg:last :      0.17s CPU      0.17s WALL (     918 calls)
     h_psi        :      4.99s CPU      5.02s WALL (    1831 calls)
     g_psi        :      0.03s CPU      0.03s WALL (    1291 calls)

     Called by h_psi:
     h_psi:calbec :      0.30s CPU      0.30s WALL (    1831 calls)
     vloc_psi     :      4.33s CPU      4.36s WALL (    1831 calls)
     add_vuspsi   :      0.24s CPU      0.24s WALL (    1831 calls)
     vhpsi        :      0.09s CPU      0.10s WALL (    1831 calls)

     General routines
     calbec       :      0.48s CPU      0.48s WALL (    5282 calls)
     fft          :      0.21s CPU      0.21s WALL (      85 calls)
     ffts         :      0.16s CPU      0.16s WALL (      36 calls)
     fftw         :      4.16s CPU      4.18s WALL (   18646 calls)
     interpolate  :      0.18s CPU      0.18s WALL (      18 calls)

     Parallel routines

     Hubbard U routines
     new_ns       :      0.03s CPU      0.03s WALL (       9 calls)
     vhpsi        :      0.09s CPU      0.10s WALL (    1831 calls)
     force_hub    :      0.10s CPU      0.10s WALL (       1 calls)
                                        0.00s GPU  (       1 calls)
     stres_hub    :      0.32s CPU      0.32s WALL (       1 calls)
                                        0.00s GPU  (       1 calls)

     PWSCF        :      9.32s CPU      9.57s WALL


   This run was terminated on:  18:37:17  21Jun2024            

=------------------------------------------------------------------------------=
   JOB DONE.
=------------------------------------------------------------------------------=
