
     Program PWSCF v.7.3.1 starts on  1Jul2024 at  9:32: 8 

     This program is part of the open-source Quantum ESPRESSO suite
     for quantum simulation of materials; please cite
         "P. Giannozzi et al., J. Phys.:Condens. Matter 21 395502 (2009);
         "P. Giannozzi et al., J. Phys.:Condens. Matter 29 465901 (2017);
         "P. Giannozzi et al., J. Chem. Phys. 152 154105 (2020);
          URL http://www.quantum-espresso.org", 
     in publications or presentations arising from this work. More details at
     http://www.quantum-espresso.org/quote

     Parallel version (MPI), running on     1 processors

     MPI processes distributed on     1 nodes
     1794 MiB available memory on the printing compute node when the environment starts

     Reading input from Fe.in

     Current dimensions of program PWSCF are:
     Max number of different atomic species (ntypx) = 10
     Max number of k-points (npk) =  40000
     Max angular momentum in pseudopotentials (lmaxx) =  4

     IMPORTANT: XC functional enforced from input :
     Exchange-correlation= SLA+PW
                           (   1   4   0   0   0   0   0)
     Any further DFT definition will be discarded
     Please, verify this is what you really want

     Message from routine volume:
     axis vectors are left-handed

     Subspace diagonalization in iterative solution of the eigenvalue problem:
     a serial algorithm will be used


     G-vector sticks info
     --------------------
     sticks:   dense  smooth     PW     G-vecs:    dense   smooth      PW
     Sum        1595    1595    471                40143    40143    6459

     Using Slab Decomposition



     bravais-lattice index     =            0
     lattice parameter (alat)  =       9.3938  a.u.
     unit-cell volume          =     638.1220 (a.u.)^3
     number of atoms/cell      =            1
     number of atomic types    =            1
     number of electrons       =        16.00
     number of Kohn-Sham states=           12
     kinetic-energy cutoff     =      60.0000  Ry
     charge density cutoff     =     240.0000  Ry
     scf convergence threshold =      1.0E-12
     mixing beta               =       0.7000
     number of iterations used =            8  plain     mixing
     Exchange-correlation= SLA+PW
                           (   1   4   0   0   0   0   0)

     celldm(1)=   9.393812  celldm(2)=   0.000000  celldm(3)=   0.000000
     celldm(4)=   0.000000  celldm(5)=   0.000000  celldm(6)=   0.000000

     crystal axes: (cart. coord. in units of alat)
               a(1) = (   0.577350   0.577350  -0.577350 )  
               a(2) = (   0.577350  -0.577350   0.577350 )  
               a(3) = (  -0.577350   0.577350   0.577350 )  

     reciprocal axes: (cart. coord. in units 2 pi/alat)
               b(1) = (  0.866025  0.866025 -0.000000 )  
               b(2) = (  0.866025 -0.000000  0.866025 )  
               b(3) = ( -0.000000  0.866025  0.866025 )  


     PseudoPot. # 1 for Fe read from file:
     ./pseudo/Fe.upf
     MD5 check sum: b1fb9d3cb1d156aba92c681262384fac
     Pseudo is Norm-conserving + core correction, Zval = 16.0
     Generated using ONCVPSP code by D. R. Hamann
     Using radial grid of 1408 points,  6 beta functions with: 
                l(1) =   0
                l(2) =   0
                l(3) =   1
                l(4) =   1
                l(5) =   2
                l(6) =   2

     atomic species   valence    mass     pseudopotential
     Fe               16.00    55.84500     Fe( 1.00)

     Starting magnetic structure 
     atomic species   magnetization
     Fe              0.670

     No symmetry found


                                    s                        frac. trans.

      isym =  1     identity                                     

 cryst.   s( 1) = (     1          0          0      )
                  (     0          1          0      )
                  (     0          0          1      )

 cart.    s( 1) = (  1.0000000  0.0000000  0.0000000 )
                  (  0.0000000  1.0000000  0.0000000 )
                  (  0.0000000  0.0000000  1.0000000 )


   Cartesian axes

     site n.     atom                  positions (alat units)
         1        Fe     tau(   1) = (   0.0000000   0.0000000   0.0000000  )

   Crystallographic axes

     site n.     atom                  positions (cryst. coord.)
         1        Fe     tau(   1) = (  0.0000000  0.0000000  0.0000000  )

     number of k points=    27  Gaussian smearing, width (Ry)=  0.0100
                       cart. coord. in units 2pi/alat
        k(    1) = (   0.0000000   0.0000000   0.0000000), wk =   0.0370370
        k(    2) = (   0.0000000   0.2886751   0.2886751), wk =   0.0370370
        k(    3) = (   0.0000000  -0.2886751  -0.2886751), wk =   0.0370370
        k(    4) = (   0.2886751   0.0000000   0.2886751), wk =   0.0370370
        k(    5) = (   0.2886751   0.2886751   0.5773503), wk =   0.0370370
        k(    6) = (   0.2886751  -0.2886751  -0.0000000), wk =   0.0370370
        k(    7) = (  -0.2886751   0.0000000  -0.2886751), wk =   0.0370370
        k(    8) = (  -0.2886751   0.2886751  -0.0000000), wk =   0.0370370
        k(    9) = (  -0.2886751  -0.2886751  -0.5773503), wk =   0.0370370
        k(   10) = (   0.2886751   0.2886751   0.0000000), wk =   0.0370370
        k(   11) = (   0.2886751   0.5773503   0.2886751), wk =   0.0370370
        k(   12) = (   0.2886751  -0.0000000  -0.2886751), wk =   0.0370370
        k(   13) = (   0.5773503   0.2886751   0.2886751), wk =   0.0370370
        k(   14) = (   0.5773503   0.5773503   0.5773503), wk =   0.0370370
        k(   15) = (   0.5773503  -0.0000000  -0.0000000), wk =   0.0370370
        k(   16) = (  -0.0000000   0.2886751  -0.2886751), wk =   0.0370370
        k(   17) = (  -0.0000000   0.5773503  -0.0000000), wk =   0.0370370
        k(   18) = (  -0.0000000  -0.0000000  -0.5773503), wk =   0.0370370
        k(   19) = (  -0.2886751  -0.2886751   0.0000000), wk =   0.0370370
        k(   20) = (  -0.2886751  -0.0000000   0.2886751), wk =   0.0370370
        k(   21) = (  -0.2886751  -0.5773503  -0.2886751), wk =   0.0370370
        k(   22) = (  -0.0000000  -0.2886751   0.2886751), wk =   0.0370370
        k(   23) = (  -0.0000000  -0.0000000   0.5773503), wk =   0.0370370
        k(   24) = (  -0.0000000  -0.5773503  -0.0000000), wk =   0.0370370
        k(   25) = (  -0.5773503  -0.2886751  -0.2886751), wk =   0.0370370
        k(   26) = (  -0.5773503  -0.0000000  -0.0000000), wk =   0.0370370
        k(   27) = (  -0.5773503  -0.5773503  -0.5773503), wk =   0.0370370

                       cryst. coord.
        k(    1) = (   0.0000000   0.0000000   0.0000000), wk =   0.0370370
        k(    2) = (   0.0000000   0.0000000   0.3333333), wk =   0.0370370
        k(    3) = (   0.0000000   0.0000000  -0.3333333), wk =   0.0370370
        k(    4) = (   0.0000000   0.3333333   0.0000000), wk =   0.0370370
        k(    5) = (   0.0000000   0.3333333   0.3333333), wk =   0.0370370
        k(    6) = (   0.0000000   0.3333333  -0.3333333), wk =   0.0370370
        k(    7) = (   0.0000000  -0.3333333   0.0000000), wk =   0.0370370
        k(    8) = (   0.0000000  -0.3333333   0.3333333), wk =   0.0370370
        k(    9) = (   0.0000000  -0.3333333  -0.3333333), wk =   0.0370370
        k(   10) = (   0.3333333   0.0000000   0.0000000), wk =   0.0370370
        k(   11) = (   0.3333333   0.0000000   0.3333333), wk =   0.0370370
        k(   12) = (   0.3333333   0.0000000  -0.3333333), wk =   0.0370370
        k(   13) = (   0.3333333   0.3333333   0.0000000), wk =   0.0370370
        k(   14) = (   0.3333333   0.3333333   0.3333333), wk =   0.0370370
        k(   15) = (   0.3333333   0.3333333  -0.3333333), wk =   0.0370370
        k(   16) = (   0.3333333  -0.3333333   0.0000000), wk =   0.0370370
        k(   17) = (   0.3333333  -0.3333333   0.3333333), wk =   0.0370370
        k(   18) = (   0.3333333  -0.3333333  -0.3333333), wk =   0.0370370
        k(   19) = (  -0.3333333   0.0000000   0.0000000), wk =   0.0370370
        k(   20) = (  -0.3333333   0.0000000   0.3333333), wk =   0.0370370
        k(   21) = (  -0.3333333   0.0000000  -0.3333333), wk =   0.0370370
        k(   22) = (  -0.3333333   0.3333333   0.0000000), wk =   0.0370370
        k(   23) = (  -0.3333333   0.3333333   0.3333333), wk =   0.0370370
        k(   24) = (  -0.3333333   0.3333333  -0.3333333), wk =   0.0370370
        k(   25) = (  -0.3333333  -0.3333333   0.0000000), wk =   0.0370370
        k(   26) = (  -0.3333333  -0.3333333   0.3333333), wk =   0.0370370
        k(   27) = (  -0.3333333  -0.3333333  -0.3333333), wk =   0.0370370

     Dense  grid:    40143 G-vectors     FFT dimensions: (  48,  48,  48)

     Dynamical RAM for                 wfc:       0.92 MB

     Dynamical RAM for     wfc (w. buffer):      50.43 MB

     Dynamical RAM for           str. fact:       0.61 MB

     Dynamical RAM for           local pot:       0.00 MB

     Dynamical RAM for          nlocal pot:       1.38 MB

     Dynamical RAM for                qrad:       1.24 MB

     Dynamical RAM for          rho,v,vnew:       8.74 MB

     Dynamical RAM for               rhoin:       2.91 MB

     Dynamical RAM for            rho*nmix:      19.60 MB

     Dynamical RAM for           G-vectors:       2.60 MB

     Dynamical RAM for          h,s,v(r/c):       0.03 MB

     Dynamical RAM for          <psi|beta>:       0.00 MB

     Dynamical RAM for                 psi:       1.83 MB

     Dynamical RAM for                hpsi:       1.83 MB

     Dynamical RAM for      wfcinit/wfcrot:       1.84 MB

     Estimated static dynamical RAM per process >      74.21 MB

     Estimated max dynamical RAM per process >      97.51 MB
     Generating pointlists ...
     new r_m :   0.4125 (alat units)  3.8749 (a.u.) for type    1

     Initial potential from superposition of free atoms

     starting charge      15.9997, renormalised to      16.0000
     Starting wfcs are   10 randomized atomic wfcs +    2 random wfcs

     total cpu time spent up to now is        1.6 secs

     Self-consistent Calculation

     iteration #  1     ecut=    60.00 Ry     beta= 0.70
     Davidson diagonalization with overlap

---- Real-time Memory Report at c_bands before calling an iterative solver
           104 MiB given to the printing process from OS
             0 MiB allocation reported by mallinfo(arena+hblkhd)
          1706 MiB available memory on the node where the printing process lives
------------------
     ethr =  1.00E-02,  avg # of iterations =  7.0

     total cpu time spent up to now is        5.3 secs

     total energy              =    -249.36144293 Ry
     estimated scf accuracy    <       1.36035622 Ry

     total magnetization       =     6.00 Bohr mag/cell
     absolute magnetization    =     6.00 Bohr mag/cell

     iteration #  2     ecut=    60.00 Ry     beta= 0.70
     Davidson diagonalization with overlap

---- Real-time Memory Report at c_bands before calling an iterative solver
           129 MiB given to the printing process from OS
             0 MiB allocation reported by mallinfo(arena+hblkhd)
          1681 MiB available memory on the node where the printing process lives
------------------
     ethr =  8.50E-03,  avg # of iterations =  2.0

     total cpu time spent up to now is        8.4 secs

     total energy              =    -249.57560916 Ry
     estimated scf accuracy    <       4.04322228 Ry

     total magnetization       =     2.00 Bohr mag/cell
     absolute magnetization    =     2.04 Bohr mag/cell

     iteration #  3     ecut=    60.00 Ry     beta= 0.70
     Davidson diagonalization with overlap

---- Real-time Memory Report at c_bands before calling an iterative solver
           131 MiB given to the printing process from OS
             0 MiB allocation reported by mallinfo(arena+hblkhd)
          1678 MiB available memory on the node where the printing process lives
------------------
     ethr =  8.50E-03,  avg # of iterations =  2.0

     total cpu time spent up to now is       11.6 secs

     total energy              =    -249.85603197 Ry
     estimated scf accuracy    <       0.25980746 Ry

     total magnetization       =     4.00 Bohr mag/cell
     absolute magnetization    =     4.00 Bohr mag/cell

     iteration #  4     ecut=    60.00 Ry     beta= 0.70
     Davidson diagonalization with overlap

---- Real-time Memory Report at c_bands before calling an iterative solver
           134 MiB given to the printing process from OS
             0 MiB allocation reported by mallinfo(arena+hblkhd)
          1675 MiB available memory on the node where the printing process lives
------------------
     ethr =  1.62E-03,  avg # of iterations =  2.0

     total cpu time spent up to now is       14.7 secs

     total energy              =    -249.88189802 Ry
     estimated scf accuracy    <       0.07538211 Ry

     total magnetization       =     4.00 Bohr mag/cell
     absolute magnetization    =     4.10 Bohr mag/cell

     iteration #  5     ecut=    60.00 Ry     beta= 0.70
     Davidson diagonalization with overlap

---- Real-time Memory Report at c_bands before calling an iterative solver
           136 MiB given to the printing process from OS
             0 MiB allocation reported by mallinfo(arena+hblkhd)
          1672 MiB available memory on the node where the printing process lives
------------------
     ethr =  4.71E-04,  avg # of iterations =  1.2

     total cpu time spent up to now is       17.6 secs

     total energy              =    -249.88913357 Ry
     estimated scf accuracy    <       0.00051423 Ry

     total magnetization       =     4.00 Bohr mag/cell
     absolute magnetization    =     4.02 Bohr mag/cell

     iteration #  6     ecut=    60.00 Ry     beta= 0.70
     Davidson diagonalization with overlap

---- Real-time Memory Report at c_bands before calling an iterative solver
           139 MiB given to the printing process from OS
             0 MiB allocation reported by mallinfo(arena+hblkhd)
          1668 MiB available memory on the node where the printing process lives
------------------
     ethr =  3.21E-06,  avg # of iterations =  5.3

     total cpu time spent up to now is       21.5 secs

     total energy              =    -249.88946762 Ry
     estimated scf accuracy    <       0.00101241 Ry

     total magnetization       =     4.00 Bohr mag/cell
     absolute magnetization    =     4.01 Bohr mag/cell

     iteration #  7     ecut=    60.00 Ry     beta= 0.70
     Davidson diagonalization with overlap

---- Real-time Memory Report at c_bands before calling an iterative solver
           141 MiB given to the printing process from OS
             0 MiB allocation reported by mallinfo(arena+hblkhd)
          1666 MiB available memory on the node where the printing process lives
------------------
     ethr =  3.21E-06,  avg # of iterations =  1.0

     total cpu time spent up to now is       24.2 secs

     total energy              =    -249.88945780 Ry
     estimated scf accuracy    <       0.00067752 Ry

     total magnetization       =     4.00 Bohr mag/cell
     absolute magnetization    =     4.01 Bohr mag/cell

     iteration #  8     ecut=    60.00 Ry     beta= 0.70
     Davidson diagonalization with overlap

---- Real-time Memory Report at c_bands before calling an iterative solver
           144 MiB given to the printing process from OS
             0 MiB allocation reported by mallinfo(arena+hblkhd)
          1664 MiB available memory on the node where the printing process lives
------------------
     ethr =  3.21E-06,  avg # of iterations =  1.0

     total cpu time spent up to now is       26.7 secs

     total energy              =    -249.88917918 Ry
     estimated scf accuracy    <       0.00086470 Ry

     total magnetization       =     4.00 Bohr mag/cell
     absolute magnetization    =     4.01 Bohr mag/cell

     iteration #  9     ecut=    60.00 Ry     beta= 0.70
     Davidson diagonalization with overlap

---- Real-time Memory Report at c_bands before calling an iterative solver
           146 MiB given to the printing process from OS
             0 MiB allocation reported by mallinfo(arena+hblkhd)
          1661 MiB available memory on the node where the printing process lives
------------------
     ethr =  3.21E-06,  avg # of iterations =  2.0

     total cpu time spent up to now is       29.8 secs

     total energy              =    -249.88939852 Ry
     estimated scf accuracy    <       0.00038809 Ry

     total magnetization       =     4.00 Bohr mag/cell
     absolute magnetization    =     4.02 Bohr mag/cell

     iteration # 10     ecut=    60.00 Ry     beta= 0.70
     Davidson diagonalization with overlap

---- Real-time Memory Report at c_bands before calling an iterative solver
           149 MiB given to the printing process from OS
             0 MiB allocation reported by mallinfo(arena+hblkhd)
          1658 MiB available memory on the node where the printing process lives
------------------
     ethr =  2.43E-06,  avg # of iterations =  2.0

     total cpu time spent up to now is       32.7 secs

     total energy              =    -249.88925011 Ry
     estimated scf accuracy    <       0.00144012 Ry

     total magnetization       =     4.00 Bohr mag/cell
     absolute magnetization    =     4.02 Bohr mag/cell

     iteration # 11     ecut=    60.00 Ry     beta= 0.70
     Davidson diagonalization with overlap

---- Real-time Memory Report at c_bands before calling an iterative solver
           149 MiB given to the printing process from OS
             0 MiB allocation reported by mallinfo(arena+hblkhd)
          1657 MiB available memory on the node where the printing process lives
------------------
     ethr =  2.43E-06,  avg # of iterations =  2.0

     total cpu time spent up to now is       36.2 secs

     total energy              =    -249.88942547 Ry
     estimated scf accuracy    <       0.00003355 Ry

     total magnetization       =     4.00 Bohr mag/cell
     absolute magnetization    =     4.01 Bohr mag/cell

     iteration # 12     ecut=    60.00 Ry     beta= 0.70
     Davidson diagonalization with overlap

---- Real-time Memory Report at c_bands before calling an iterative solver
           149 MiB given to the printing process from OS
             0 MiB allocation reported by mallinfo(arena+hblkhd)
          1658 MiB available memory on the node where the printing process lives
------------------
     ethr =  2.10E-07,  avg # of iterations =  1.5

     total cpu time spent up to now is       39.1 secs

     total energy              =    -249.88943187 Ry
     estimated scf accuracy    <       0.00000281 Ry

     total magnetization       =     4.00 Bohr mag/cell
     absolute magnetization    =     4.01 Bohr mag/cell

     iteration # 13     ecut=    60.00 Ry     beta= 0.70
     Davidson diagonalization with overlap

---- Real-time Memory Report at c_bands before calling an iterative solver
           149 MiB given to the printing process from OS
             0 MiB allocation reported by mallinfo(arena+hblkhd)
          1657 MiB available memory on the node where the printing process lives
------------------
     ethr =  1.76E-08,  avg # of iterations =  1.1

     total cpu time spent up to now is       41.7 secs

     total energy              =    -249.88943306 Ry
     estimated scf accuracy    <       0.00000072 Ry

     total magnetization       =     4.00 Bohr mag/cell
     absolute magnetization    =     4.01 Bohr mag/cell

     iteration # 14     ecut=    60.00 Ry     beta= 0.70
     Davidson diagonalization with overlap

---- Real-time Memory Report at c_bands before calling an iterative solver
           149 MiB given to the printing process from OS
             0 MiB allocation reported by mallinfo(arena+hblkhd)
          1659 MiB available memory on the node where the printing process lives
------------------
     ethr =  4.49E-09,  avg # of iterations =  1.4

     total cpu time spent up to now is       44.3 secs

     total energy              =    -249.88943311 Ry
     estimated scf accuracy    <       0.00000012 Ry

     total magnetization       =     4.00 Bohr mag/cell
     absolute magnetization    =     4.01 Bohr mag/cell

     iteration # 15     ecut=    60.00 Ry     beta= 0.70
     Davidson diagonalization with overlap

---- Real-time Memory Report at c_bands before calling an iterative solver
           149 MiB given to the printing process from OS
             0 MiB allocation reported by mallinfo(arena+hblkhd)
          1659 MiB available memory on the node where the printing process lives
------------------
     ethr =  7.59E-10,  avg # of iterations =  1.1

     total cpu time spent up to now is       46.9 secs

     total energy              =    -249.88943303 Ry
     estimated scf accuracy    <       0.00000011 Ry

     total magnetization       =     4.00 Bohr mag/cell
     absolute magnetization    =     4.01 Bohr mag/cell

     iteration # 16     ecut=    60.00 Ry     beta= 0.70
     Davidson diagonalization with overlap

---- Real-time Memory Report at c_bands before calling an iterative solver
           149 MiB given to the printing process from OS
             0 MiB allocation reported by mallinfo(arena+hblkhd)
          1660 MiB available memory on the node where the printing process lives
------------------
     ethr =  7.14E-10,  avg # of iterations =  1.0

     total cpu time spent up to now is       49.4 secs

     total energy              =    -249.88943301 Ry
     estimated scf accuracy    <       0.00000013 Ry

     total magnetization       =     4.00 Bohr mag/cell
     absolute magnetization    =     4.01 Bohr mag/cell

     iteration # 17     ecut=    60.00 Ry     beta= 0.70
     Davidson diagonalization with overlap

---- Real-time Memory Report at c_bands before calling an iterative solver
           149 MiB given to the printing process from OS
             0 MiB allocation reported by mallinfo(arena+hblkhd)
          1660 MiB available memory on the node where the printing process lives
------------------
     ethr =  7.14E-10,  avg # of iterations =  1.7

     total cpu time spent up to now is       52.2 secs

     total energy              =    -249.88943306 Ry
     estimated scf accuracy    <       0.00000009 Ry

     total magnetization       =     4.00 Bohr mag/cell
     absolute magnetization    =     4.01 Bohr mag/cell

     iteration # 18     ecut=    60.00 Ry     beta= 0.70
     Davidson diagonalization with overlap

---- Real-time Memory Report at c_bands before calling an iterative solver
           149 MiB given to the printing process from OS
             0 MiB allocation reported by mallinfo(arena+hblkhd)
          1658 MiB available memory on the node where the printing process lives
------------------
     ethr =  5.67E-10,  avg # of iterations =  1.0

     total cpu time spent up to now is       54.7 secs

     total energy              =    -249.88943307 Ry
     estimated scf accuracy    <       0.00000001 Ry

     total magnetization       =     4.00 Bohr mag/cell
     absolute magnetization    =     4.01 Bohr mag/cell

     iteration # 19     ecut=    60.00 Ry     beta= 0.70
     Davidson diagonalization with overlap

---- Real-time Memory Report at c_bands before calling an iterative solver
           149 MiB given to the printing process from OS
             0 MiB allocation reported by mallinfo(arena+hblkhd)
          1658 MiB available memory on the node where the printing process lives
------------------
     ethr =  6.38E-11,  avg # of iterations =  1.0

     total cpu time spent up to now is       57.4 secs

     total energy              =    -249.88943308 Ry
     estimated scf accuracy    <          4.5E-09 Ry

     total magnetization       =     4.00 Bohr mag/cell
     absolute magnetization    =     4.01 Bohr mag/cell

     iteration # 20     ecut=    60.00 Ry     beta= 0.70
     Davidson diagonalization with overlap

---- Real-time Memory Report at c_bands before calling an iterative solver
           149 MiB given to the printing process from OS
             0 MiB allocation reported by mallinfo(arena+hblkhd)
          1657 MiB available memory on the node where the printing process lives
------------------
     ethr =  2.82E-11,  avg # of iterations =  1.0

     total cpu time spent up to now is       59.9 secs

     total energy              =    -249.88943308 Ry
     estimated scf accuracy    <          3.6E-09 Ry

     total magnetization       =     4.00 Bohr mag/cell
     absolute magnetization    =     4.01 Bohr mag/cell

     iteration # 21     ecut=    60.00 Ry     beta= 0.70
     Davidson diagonalization with overlap

---- Real-time Memory Report at c_bands before calling an iterative solver
           149 MiB given to the printing process from OS
             0 MiB allocation reported by mallinfo(arena+hblkhd)
          1657 MiB available memory on the node where the printing process lives
------------------
     ethr =  2.22E-11,  avg # of iterations =  1.0

     total cpu time spent up to now is       62.4 secs

     total energy              =    -249.88943307 Ry
     estimated scf accuracy    <          3.7E-09 Ry

     total magnetization       =     4.00 Bohr mag/cell
     absolute magnetization    =     4.01 Bohr mag/cell

     iteration # 22     ecut=    60.00 Ry     beta= 0.70
     Davidson diagonalization with overlap

---- Real-time Memory Report at c_bands before calling an iterative solver
           149 MiB given to the printing process from OS
             0 MiB allocation reported by mallinfo(arena+hblkhd)
          1657 MiB available memory on the node where the printing process lives
------------------
     ethr =  2.22E-11,  avg # of iterations =  1.5

     total cpu time spent up to now is       65.1 secs

     total energy              =    -249.88943307 Ry
     estimated scf accuracy    <          4.2E-09 Ry

     total magnetization       =     4.00 Bohr mag/cell
     absolute magnetization    =     4.01 Bohr mag/cell

     iteration # 23     ecut=    60.00 Ry     beta= 0.70
     Davidson diagonalization with overlap

---- Real-time Memory Report at c_bands before calling an iterative solver
           149 MiB given to the printing process from OS
             0 MiB allocation reported by mallinfo(arena+hblkhd)
          1657 MiB available memory on the node where the printing process lives
------------------
     ethr =  2.22E-11,  avg # of iterations =  1.9

     total cpu time spent up to now is       67.9 secs

     total energy              =    -249.88943307 Ry
     estimated scf accuracy    <          1.2E-09 Ry

     total magnetization       =     4.00 Bohr mag/cell
     absolute magnetization    =     4.01 Bohr mag/cell

     iteration # 24     ecut=    60.00 Ry     beta= 0.70
     Davidson diagonalization with overlap

---- Real-time Memory Report at c_bands before calling an iterative solver
           149 MiB given to the printing process from OS
             0 MiB allocation reported by mallinfo(arena+hblkhd)
          1657 MiB available memory on the node where the printing process lives
------------------
     ethr =  7.44E-12,  avg # of iterations =  1.0

     total cpu time spent up to now is       70.4 secs

     total energy              =    -249.88943307 Ry
     estimated scf accuracy    <          1.5E-10 Ry

     total magnetization       =     4.00 Bohr mag/cell
     absolute magnetization    =     4.01 Bohr mag/cell

     iteration # 25     ecut=    60.00 Ry     beta= 0.70
     Davidson diagonalization with overlap

---- Real-time Memory Report at c_bands before calling an iterative solver
           149 MiB given to the printing process from OS
             0 MiB allocation reported by mallinfo(arena+hblkhd)
          1656 MiB available memory on the node where the printing process lives
------------------
     ethr =  9.31E-13,  avg # of iterations =  1.3

     total cpu time spent up to now is       73.1 secs

     total energy              =    -249.88943307 Ry
     estimated scf accuracy    <          1.1E-10 Ry

     total magnetization       =     4.00 Bohr mag/cell
     absolute magnetization    =     4.01 Bohr mag/cell

     iteration # 26     ecut=    60.00 Ry     beta= 0.70
     Davidson diagonalization with overlap

---- Real-time Memory Report at c_bands before calling an iterative solver
           149 MiB given to the printing process from OS
             0 MiB allocation reported by mallinfo(arena+hblkhd)
          1657 MiB available memory on the node where the printing process lives
------------------
     ethr =  6.60E-13,  avg # of iterations =  1.0

     total cpu time spent up to now is       75.6 secs

     total energy              =    -249.88943307 Ry
     estimated scf accuracy    <          2.6E-11 Ry

     total magnetization       =     4.00 Bohr mag/cell
     absolute magnetization    =     4.01 Bohr mag/cell

     iteration # 27     ecut=    60.00 Ry     beta= 0.70
     Davidson diagonalization with overlap

---- Real-time Memory Report at c_bands before calling an iterative solver
           149 MiB given to the printing process from OS
             0 MiB allocation reported by mallinfo(arena+hblkhd)
          1657 MiB available memory on the node where the printing process lives
------------------
     ethr =  1.64E-13,  avg # of iterations =  1.0

     total cpu time spent up to now is       78.2 secs

     total energy              =    -249.88943307 Ry
     estimated scf accuracy    <          6.1E-11 Ry

     total magnetization       =     4.00 Bohr mag/cell
     absolute magnetization    =     4.01 Bohr mag/cell

     iteration # 28     ecut=    60.00 Ry     beta= 0.70
     Davidson diagonalization with overlap

---- Real-time Memory Report at c_bands before calling an iterative solver
           149 MiB given to the printing process from OS
             0 MiB allocation reported by mallinfo(arena+hblkhd)
          1657 MiB available memory on the node where the printing process lives
------------------
     ethr =  1.64E-13,  avg # of iterations =  1.0

     total cpu time spent up to now is       81.0 secs

     total energy              =    -249.88943307 Ry
     estimated scf accuracy    <          5.2E-11 Ry

     total magnetization       =     4.00 Bohr mag/cell
     absolute magnetization    =     4.01 Bohr mag/cell

     iteration # 29     ecut=    60.00 Ry     beta= 0.70
     Davidson diagonalization with overlap

---- Real-time Memory Report at c_bands before calling an iterative solver
           149 MiB given to the printing process from OS
             0 MiB allocation reported by mallinfo(arena+hblkhd)
          1657 MiB available memory on the node where the printing process lives
------------------
     ethr =  1.64E-13,  avg # of iterations =  1.5

     total cpu time spent up to now is       83.6 secs

     total energy              =    -249.88943307 Ry
     estimated scf accuracy    <          5.4E-11 Ry

     total magnetization       =     4.00 Bohr mag/cell
     absolute magnetization    =     4.01 Bohr mag/cell

     iteration # 30     ecut=    60.00 Ry     beta= 0.70
     Davidson diagonalization with overlap

---- Real-time Memory Report at c_bands before calling an iterative solver
           149 MiB given to the printing process from OS
             0 MiB allocation reported by mallinfo(arena+hblkhd)
          1658 MiB available memory on the node where the printing process lives
------------------
     ethr =  1.64E-13,  avg # of iterations =  1.4

     total cpu time spent up to now is       86.1 secs

     total energy              =    -249.88943307 Ry
     estimated scf accuracy    <          2.9E-11 Ry

     total magnetization       =     4.00 Bohr mag/cell
     absolute magnetization    =     4.01 Bohr mag/cell

     iteration # 31     ecut=    60.00 Ry     beta= 0.70
     Davidson diagonalization with overlap

---- Real-time Memory Report at c_bands before calling an iterative solver
           149 MiB given to the printing process from OS
             0 MiB allocation reported by mallinfo(arena+hblkhd)
          1657 MiB available memory on the node where the printing process lives
------------------
     ethr =  1.64E-13,  avg # of iterations =  1.0

     total cpu time spent up to now is       88.7 secs

     total energy              =    -249.88943307 Ry
     estimated scf accuracy    <          3.7E-11 Ry

     total magnetization       =     4.00 Bohr mag/cell
     absolute magnetization    =     4.01 Bohr mag/cell

     iteration # 32     ecut=    60.00 Ry     beta= 0.70
     Davidson diagonalization with overlap

---- Real-time Memory Report at c_bands before calling an iterative solver
           149 MiB given to the printing process from OS
             0 MiB allocation reported by mallinfo(arena+hblkhd)
          1656 MiB available memory on the node where the printing process lives
------------------
     ethr =  1.64E-13,  avg # of iterations =  1.5

     total cpu time spent up to now is       91.5 secs

     total energy              =    -249.88943307 Ry
     estimated scf accuracy    <          2.6E-11 Ry

     total magnetization       =     4.00 Bohr mag/cell
     absolute magnetization    =     4.01 Bohr mag/cell

     iteration # 33     ecut=    60.00 Ry     beta= 0.70
     Davidson diagonalization with overlap

---- Real-time Memory Report at c_bands before calling an iterative solver
           149 MiB given to the printing process from OS
             0 MiB allocation reported by mallinfo(arena+hblkhd)
          1655 MiB available memory on the node where the printing process lives
------------------
     ethr =  1.62E-13,  avg # of iterations =  1.4

     total cpu time spent up to now is       94.5 secs

     total energy              =    -249.88943307 Ry
     estimated scf accuracy    <          2.0E-11 Ry

     total magnetization       =     4.00 Bohr mag/cell
     absolute magnetization    =     4.01 Bohr mag/cell

     iteration # 34     ecut=    60.00 Ry     beta= 0.70
     Davidson diagonalization with overlap

---- Real-time Memory Report at c_bands before calling an iterative solver
           149 MiB given to the printing process from OS
             0 MiB allocation reported by mallinfo(arena+hblkhd)
          1657 MiB available memory on the node where the printing process lives
------------------
     ethr =  1.24E-13,  avg # of iterations =  1.0

     total cpu time spent up to now is       97.3 secs

     total energy              =    -249.88943307 Ry
     estimated scf accuracy    <          1.4E-11 Ry

     total magnetization       =     4.00 Bohr mag/cell
     absolute magnetization    =     4.01 Bohr mag/cell

     iteration # 35     ecut=    60.00 Ry     beta= 0.70
     Davidson diagonalization with overlap

---- Real-time Memory Report at c_bands before calling an iterative solver
           149 MiB given to the printing process from OS
             0 MiB allocation reported by mallinfo(arena+hblkhd)
          1658 MiB available memory on the node where the printing process lives
------------------
     ethr =  1.00E-13,  avg # of iterations =  1.0

     total cpu time spent up to now is      100.3 secs

     total energy              =    -249.88943307 Ry
     estimated scf accuracy    <          1.8E-11 Ry

     total magnetization       =     4.00 Bohr mag/cell
     absolute magnetization    =     4.01 Bohr mag/cell

     iteration # 36     ecut=    60.00 Ry     beta= 0.70
     Davidson diagonalization with overlap

---- Real-time Memory Report at c_bands before calling an iterative solver
           149 MiB given to the printing process from OS
             0 MiB allocation reported by mallinfo(arena+hblkhd)
          1658 MiB available memory on the node where the printing process lives
------------------
     ethr =  1.00E-13,  avg # of iterations =  1.0

     total cpu time spent up to now is      103.4 secs

     total energy              =    -249.88943307 Ry
     estimated scf accuracy    <          1.8E-11 Ry

     total magnetization       =     4.00 Bohr mag/cell
     absolute magnetization    =     4.01 Bohr mag/cell

     iteration # 37     ecut=    60.00 Ry     beta= 0.70
     Davidson diagonalization with overlap

---- Real-time Memory Report at c_bands before calling an iterative solver
           149 MiB given to the printing process from OS
             0 MiB allocation reported by mallinfo(arena+hblkhd)
          1656 MiB available memory on the node where the printing process lives
------------------
     ethr =  1.00E-13,  avg # of iterations =  1.0

     total cpu time spent up to now is      106.0 secs

     total energy              =    -249.88943307 Ry
     estimated scf accuracy    <          1.5E-11 Ry

     total magnetization       =     4.00 Bohr mag/cell
     absolute magnetization    =     4.01 Bohr mag/cell

     iteration # 38     ecut=    60.00 Ry     beta= 0.70
     Davidson diagonalization with overlap

---- Real-time Memory Report at c_bands before calling an iterative solver
           149 MiB given to the printing process from OS
             0 MiB allocation reported by mallinfo(arena+hblkhd)
          1655 MiB available memory on the node where the printing process lives
------------------
     ethr =  1.00E-13,  avg # of iterations =  1.0

     total cpu time spent up to now is      108.5 secs

     total energy              =    -249.88943307 Ry
     estimated scf accuracy    <          1.9E-11 Ry

     total magnetization       =     4.00 Bohr mag/cell
     absolute magnetization    =     4.01 Bohr mag/cell

     iteration # 39     ecut=    60.00 Ry     beta= 0.70
     Davidson diagonalization with overlap

---- Real-time Memory Report at c_bands before calling an iterative solver
           149 MiB given to the printing process from OS
             0 MiB allocation reported by mallinfo(arena+hblkhd)
          1655 MiB available memory on the node where the printing process lives
------------------
     ethr =  1.00E-13,  avg # of iterations =  1.0

     total cpu time spent up to now is      111.1 secs

     total energy              =    -249.88943307 Ry
     estimated scf accuracy    <          2.4E-11 Ry

     total magnetization       =     4.00 Bohr mag/cell
     absolute magnetization    =     4.01 Bohr mag/cell

     iteration # 40     ecut=    60.00 Ry     beta= 0.70
     Davidson diagonalization with overlap

---- Real-time Memory Report at c_bands before calling an iterative solver
           149 MiB given to the printing process from OS
             0 MiB allocation reported by mallinfo(arena+hblkhd)
          1655 MiB available memory on the node where the printing process lives
------------------
     ethr =  1.00E-13,  avg # of iterations =  1.0

     total cpu time spent up to now is      113.6 secs

     total energy              =    -249.88943307 Ry
     estimated scf accuracy    <          3.0E-11 Ry

     total magnetization       =     4.00 Bohr mag/cell
     absolute magnetization    =     4.01 Bohr mag/cell

     iteration # 41     ecut=    60.00 Ry     beta= 0.70
     Davidson diagonalization with overlap

---- Real-time Memory Report at c_bands before calling an iterative solver
           149 MiB given to the printing process from OS
             0 MiB allocation reported by mallinfo(arena+hblkhd)
          1654 MiB available memory on the node where the printing process lives
------------------
     ethr =  1.00E-13,  avg # of iterations =  1.0

     total cpu time spent up to now is      116.1 secs

     total energy              =    -249.88943307 Ry
     estimated scf accuracy    <          2.4E-11 Ry

     total magnetization       =     4.00 Bohr mag/cell
     absolute magnetization    =     4.01 Bohr mag/cell

     iteration # 42     ecut=    60.00 Ry     beta= 0.70
     Davidson diagonalization with overlap

---- Real-time Memory Report at c_bands before calling an iterative solver
           149 MiB given to the printing process from OS
             0 MiB allocation reported by mallinfo(arena+hblkhd)
          1654 MiB available memory on the node where the printing process lives
------------------
     ethr =  1.00E-13,  avg # of iterations =  1.0

     total cpu time spent up to now is      118.6 secs

     total energy              =    -249.88943307 Ry
     estimated scf accuracy    <          2.2E-11 Ry

     total magnetization       =     4.00 Bohr mag/cell
     absolute magnetization    =     4.01 Bohr mag/cell

     iteration # 43     ecut=    60.00 Ry     beta= 0.70
     Davidson diagonalization with overlap

---- Real-time Memory Report at c_bands before calling an iterative solver
           149 MiB given to the printing process from OS
             0 MiB allocation reported by mallinfo(arena+hblkhd)
          1654 MiB available memory on the node where the printing process lives
------------------
     ethr =  1.00E-13,  avg # of iterations =  1.0

     total cpu time spent up to now is      121.2 secs

     total energy              =    -249.88943307 Ry
     estimated scf accuracy    <          1.9E-11 Ry

     total magnetization       =     4.00 Bohr mag/cell
     absolute magnetization    =     4.01 Bohr mag/cell

     iteration # 44     ecut=    60.00 Ry     beta= 0.70
     Davidson diagonalization with overlap

---- Real-time Memory Report at c_bands before calling an iterative solver
           149 MiB given to the printing process from OS
             0 MiB allocation reported by mallinfo(arena+hblkhd)
          1657 MiB available memory on the node where the printing process lives
------------------
     ethr =  1.00E-13,  avg # of iterations =  1.0

     total cpu time spent up to now is      123.7 secs

     total energy              =    -249.88943307 Ry
     estimated scf accuracy    <          2.4E-11 Ry

     total magnetization       =     4.00 Bohr mag/cell
     absolute magnetization    =     4.01 Bohr mag/cell

     iteration # 45     ecut=    60.00 Ry     beta= 0.70
     Davidson diagonalization with overlap

---- Real-time Memory Report at c_bands before calling an iterative solver
           149 MiB given to the printing process from OS
             0 MiB allocation reported by mallinfo(arena+hblkhd)
          1658 MiB available memory on the node where the printing process lives
------------------
     ethr =  1.00E-13,  avg # of iterations =  1.0

     total cpu time spent up to now is      126.2 secs

     total energy              =    -249.88943307 Ry
     estimated scf accuracy    <          2.0E-11 Ry

     total magnetization       =     4.00 Bohr mag/cell
     absolute magnetization    =     4.01 Bohr mag/cell

     iteration # 46     ecut=    60.00 Ry     beta= 0.70
     Davidson diagonalization with overlap

---- Real-time Memory Report at c_bands before calling an iterative solver
           149 MiB given to the printing process from OS
             0 MiB allocation reported by mallinfo(arena+hblkhd)
          1658 MiB available memory on the node where the printing process lives
------------------
     ethr =  1.00E-13,  avg # of iterations =  1.0

     total cpu time spent up to now is      128.7 secs

     total energy              =    -249.88943307 Ry
     estimated scf accuracy    <          2.2E-11 Ry

     total magnetization       =     4.00 Bohr mag/cell
     absolute magnetization    =     4.01 Bohr mag/cell

     iteration # 47     ecut=    60.00 Ry     beta= 0.70
     Davidson diagonalization with overlap

---- Real-time Memory Report at c_bands before calling an iterative solver
           149 MiB given to the printing process from OS
             0 MiB allocation reported by mallinfo(arena+hblkhd)
          1658 MiB available memory on the node where the printing process lives
------------------
     ethr =  1.00E-13,  avg # of iterations =  1.0

     total cpu time spent up to now is      131.2 secs

     total energy              =    -249.88943307 Ry
     estimated scf accuracy    <          2.2E-11 Ry

     total magnetization       =     4.00 Bohr mag/cell
     absolute magnetization    =     4.01 Bohr mag/cell

     iteration # 48     ecut=    60.00 Ry     beta= 0.70
     Davidson diagonalization with overlap

---- Real-time Memory Report at c_bands before calling an iterative solver
           149 MiB given to the printing process from OS
             0 MiB allocation reported by mallinfo(arena+hblkhd)
          1657 MiB available memory on the node where the printing process lives
------------------
     ethr =  1.00E-13,  avg # of iterations =  1.1

     total cpu time spent up to now is      133.8 secs

     total energy              =    -249.88943307 Ry
     estimated scf accuracy    <          4.0E-11 Ry

     total magnetization       =     4.00 Bohr mag/cell
     absolute magnetization    =     4.01 Bohr mag/cell

     iteration # 49     ecut=    60.00 Ry     beta= 0.70
     Davidson diagonalization with overlap

---- Real-time Memory Report at c_bands before calling an iterative solver
           149 MiB given to the printing process from OS
             0 MiB allocation reported by mallinfo(arena+hblkhd)
          1657 MiB available memory on the node where the printing process lives
------------------
     ethr =  1.00E-13,  avg # of iterations =  1.0

     total cpu time spent up to now is      136.3 secs

     total energy              =    -249.88943307 Ry
     estimated scf accuracy    <          2.2E-11 Ry

     total magnetization       =     4.00 Bohr mag/cell
     absolute magnetization    =     4.01 Bohr mag/cell

     iteration # 50     ecut=    60.00 Ry     beta= 0.70
     Davidson diagonalization with overlap

---- Real-time Memory Report at c_bands before calling an iterative solver
           149 MiB given to the printing process from OS
             0 MiB allocation reported by mallinfo(arena+hblkhd)
          1658 MiB available memory on the node where the printing process lives
------------------
     ethr =  1.00E-13,  avg # of iterations =  1.0

     total cpu time spent up to now is      138.8 secs

     total energy              =    -249.88943307 Ry
     estimated scf accuracy    <          2.2E-11 Ry

     total magnetization       =     4.00 Bohr mag/cell
     absolute magnetization    =     4.01 Bohr mag/cell

     iteration # 51     ecut=    60.00 Ry     beta= 0.70
     Davidson diagonalization with overlap

---- Real-time Memory Report at c_bands before calling an iterative solver
           149 MiB given to the printing process from OS
             0 MiB allocation reported by mallinfo(arena+hblkhd)
          1658 MiB available memory on the node where the printing process lives
------------------
     ethr =  1.00E-13,  avg # of iterations =  1.0

     total cpu time spent up to now is      141.3 secs

     total energy              =    -249.88943307 Ry
     estimated scf accuracy    <          2.8E-11 Ry

     total magnetization       =     4.00 Bohr mag/cell
     absolute magnetization    =     4.01 Bohr mag/cell

     iteration # 52     ecut=    60.00 Ry     beta= 0.70
     Davidson diagonalization with overlap

---- Real-time Memory Report at c_bands before calling an iterative solver
           149 MiB given to the printing process from OS
             0 MiB allocation reported by mallinfo(arena+hblkhd)
          1657 MiB available memory on the node where the printing process lives
------------------
     ethr =  1.00E-13,  avg # of iterations =  1.0

     total cpu time spent up to now is      143.8 secs

     total energy              =    -249.88943307 Ry
     estimated scf accuracy    <          3.1E-11 Ry

     total magnetization       =     4.00 Bohr mag/cell
     absolute magnetization    =     4.01 Bohr mag/cell

     iteration # 53     ecut=    60.00 Ry     beta= 0.70
     Davidson diagonalization with overlap

---- Real-time Memory Report at c_bands before calling an iterative solver
           149 MiB given to the printing process from OS
             0 MiB allocation reported by mallinfo(arena+hblkhd)
          1658 MiB available memory on the node where the printing process lives
------------------
     ethr =  1.00E-13,  avg # of iterations =  1.0

     total cpu time spent up to now is      146.3 secs

     total energy              =    -249.88943307 Ry
     estimated scf accuracy    <          3.0E-11 Ry

     total magnetization       =     4.00 Bohr mag/cell
     absolute magnetization    =     4.01 Bohr mag/cell

     iteration # 54     ecut=    60.00 Ry     beta= 0.70
     Davidson diagonalization with overlap

---- Real-time Memory Report at c_bands before calling an iterative solver
           149 MiB given to the printing process from OS
             0 MiB allocation reported by mallinfo(arena+hblkhd)
          1658 MiB available memory on the node where the printing process lives
------------------
     ethr =  1.00E-13,  avg # of iterations =  1.5

     total cpu time spent up to now is      148.9 secs

     total energy              =    -249.88943307 Ry
     estimated scf accuracy    <          1.1E-11 Ry

     total magnetization       =     4.00 Bohr mag/cell
     absolute magnetization    =     4.01 Bohr mag/cell

     iteration # 55     ecut=    60.00 Ry     beta= 0.70
     Davidson diagonalization with overlap

---- Real-time Memory Report at c_bands before calling an iterative solver
           149 MiB given to the printing process from OS
             0 MiB allocation reported by mallinfo(arena+hblkhd)
          1657 MiB available memory on the node where the printing process lives
------------------
     ethr =  1.00E-13,  avg # of iterations =  1.0

     total cpu time spent up to now is      151.4 secs

     total energy              =    -249.88943307 Ry
     estimated scf accuracy    <          1.1E-11 Ry

     total magnetization       =     4.00 Bohr mag/cell
     absolute magnetization    =     4.01 Bohr mag/cell

     iteration # 56     ecut=    60.00 Ry     beta= 0.70
     Davidson diagonalization with overlap

---- Real-time Memory Report at c_bands before calling an iterative solver
           149 MiB given to the printing process from OS
             0 MiB allocation reported by mallinfo(arena+hblkhd)
          1656 MiB available memory on the node where the printing process lives
------------------
     ethr =  1.00E-13,  avg # of iterations =  1.0

     total cpu time spent up to now is      154.0 secs

     total energy              =    -249.88943307 Ry
     estimated scf accuracy    <          5.6E-12 Ry

     total magnetization       =     4.00 Bohr mag/cell
     absolute magnetization    =     4.01 Bohr mag/cell

     iteration # 57     ecut=    60.00 Ry     beta= 0.70
     Davidson diagonalization with overlap

---- Real-time Memory Report at c_bands before calling an iterative solver
           149 MiB given to the printing process from OS
             0 MiB allocation reported by mallinfo(arena+hblkhd)
          1658 MiB available memory on the node where the printing process lives
------------------
     ethr =  1.00E-13,  avg # of iterations =  1.0

     total cpu time spent up to now is      156.5 secs

     total energy              =    -249.88943307 Ry
     estimated scf accuracy    <          2.0E-12 Ry

     total magnetization       =     4.00 Bohr mag/cell
     absolute magnetization    =     4.01 Bohr mag/cell

     iteration # 58     ecut=    60.00 Ry     beta= 0.70
     Davidson diagonalization with overlap

---- Real-time Memory Report at c_bands before calling an iterative solver
           149 MiB given to the printing process from OS
             0 MiB allocation reported by mallinfo(arena+hblkhd)
          1657 MiB available memory on the node where the printing process lives
------------------
     ethr =  1.00E-13,  avg # of iterations =  1.0

     Magnetic moment per site  (integrated on atomic sphere of radius R)
     atom   1 (R=0.413)  charge= 15.6879  magn=  3.9972

     total cpu time spent up to now is      159.0 secs

     End of self-consistent calculation

 ------ SPIN UP ------------


          k = 0.0000 0.0000 0.0000 (  5017 PWs)   bands (ev):

   -90.3950 -56.8050 -56.8050 -56.8050  -4.4814  -4.4814  -4.4814  -4.4239
    -4.4238  -3.4868   3.9410   3.9410

     occupation numbers 
     1.0000   1.0000   1.0000   1.0000   1.0000   1.0000   1.0000   1.0000
     1.0000   1.0000   0.0000   0.0000

          k = 0.0000 0.2887 0.2887 (  5007 PWs)   bands (ev):

   -90.3946 -56.8054 -56.8041 -56.8033  -4.5062  -4.4792  -4.4362  -4.4164
    -4.4160  -2.7239   0.9676   3.0059

     occupation numbers 
     1.0000   1.0000   1.0000   1.0000   1.0000   1.0000   1.0000   1.0000
     1.0000   1.0000   0.0000   0.0000

          k = 0.0000-0.2887-0.2887 (  5007 PWs)   bands (ev):

   -90.3946 -56.8054 -56.8041 -56.8033  -4.5062  -4.4792  -4.4362  -4.4164
    -4.4160  -2.7239   0.9676   3.0059

     occupation numbers 
     1.0000   1.0000   1.0000   1.0000   1.0000   1.0000   1.0000   1.0000
     1.0000   1.0000   0.0000   0.0000

          k = 0.2887 0.0000 0.2887 (  5007 PWs)   bands (ev):

   -90.3946 -56.8054 -56.8041 -56.8033  -4.5062  -4.4792  -4.4362  -4.4164
    -4.4160  -2.7239   0.9676   3.0059

     occupation numbers 
     1.0000   1.0000   1.0000   1.0000   1.0000   1.0000   1.0000   1.0000
     1.0000   1.0000   0.0000   0.0000

          k = 0.2887 0.2887 0.5774 (  5006 PWs)   bands (ev):

   -90.3946 -56.8052 -56.8037 -56.8037  -4.4965  -4.4533  -4.4533  -4.4187
    -4.4187  -2.0825   0.8562   0.8562

     occupation numbers 
     1.0000   1.0000   1.0000   1.0000   1.0000   1.0000   1.0000   1.0000
     1.0000   1.0000   0.0000   0.0000

          k = 0.2887-0.2887-0.0000 (  5007 PWs)   bands (ev):

   -90.3946 -56.8054 -56.8041 -56.8033  -4.5062  -4.4792  -4.4362  -4.4164
    -4.4160  -2.7239   0.9676   3.0059

     occupation numbers 
     1.0000   1.0000   1.0000   1.0000   1.0000   1.0000   1.0000   1.0000
     1.0000   1.0000   0.0000   0.0000

          k =-0.2887 0.0000-0.2887 (  5007 PWs)   bands (ev):

   -90.3946 -56.8054 -56.8041 -56.8033  -4.5062  -4.4792  -4.4362  -4.4164
    -4.4160  -2.7239   0.9676   3.0059

     occupation numbers 
     1.0000   1.0000   1.0000   1.0000   1.0000   1.0000   1.0000   1.0000
     1.0000   1.0000   0.0000   0.0000

          k =-0.2887 0.2887-0.0000 (  5007 PWs)   bands (ev):

   -90.3946 -56.8054 -56.8041 -56.8033  -4.5062  -4.4792  -4.4362  -4.4164
    -4.4160  -2.7239   0.9676   3.0059

     occupation numbers 
     1.0000   1.0000   1.0000   1.0000   1.0000   1.0000   1.0000   1.0000
     1.0000   1.0000   0.0000   0.0000

          k =-0.2887-0.2887-0.5774 (  5006 PWs)   bands (ev):

   -90.3946 -56.8052 -56.8037 -56.8037  -4.4965  -4.4533  -4.4533  -4.4187
    -4.4187  -2.0825   0.8562   0.8562

     occupation numbers 
     1.0000   1.0000   1.0000   1.0000   1.0000   1.0000   1.0000   1.0000
     1.0000   1.0000   0.0000   0.0000

          k = 0.2887 0.2887 0.0000 (  5007 PWs)   bands (ev):

   -90.3946 -56.8054 -56.8041 -56.8033  -4.5062  -4.4792  -4.4362  -4.4164
    -4.4160  -2.7239   0.9676   3.0059

     occupation numbers 
     1.0000   1.0000   1.0000   1.0000   1.0000   1.0000   1.0000   1.0000
     1.0000   1.0000   0.0000   0.0000

          k = 0.2887 0.5774 0.2887 (  5006 PWs)   bands (ev):

   -90.3946 -56.8052 -56.8037 -56.8037  -4.4965  -4.4533  -4.4533  -4.4187
    -4.4187  -2.0825   0.8562   0.8562

     occupation numbers 
     1.0000   1.0000   1.0000   1.0000   1.0000   1.0000   1.0000   1.0000
     1.0000   1.0000   0.0000   0.0000

          k = 0.2887-0.0000-0.2887 (  5007 PWs)   bands (ev):

   -90.3946 -56.8054 -56.8041 -56.8033  -4.5062  -4.4792  -4.4362  -4.4164
    -4.4160  -2.7239   0.9676   3.0059

     occupation numbers 
     1.0000   1.0000   1.0000   1.0000   1.0000   1.0000   1.0000   1.0000
     1.0000   1.0000   0.0000   0.0000

          k = 0.5774 0.2887 0.2887 (  5006 PWs)   bands (ev):

   -90.3946 -56.8052 -56.8037 -56.8037  -4.4965  -4.4533  -4.4533  -4.4187
    -4.4187  -2.0825   0.8562   0.8562

     occupation numbers 
     1.0000   1.0000   1.0000   1.0000   1.0000   1.0000   1.0000   1.0000
     1.0000   1.0000   0.0000   0.0000

          k = 0.5774 0.5774 0.5774 (  5006 PWs)   bands (ev):

   -90.3946 -56.8052 -56.8037 -56.8037  -4.4965  -4.4533  -4.4533  -4.4187
    -4.4187  -2.0825   0.8562   0.8562

     occupation numbers 
     1.0000   1.0000   1.0000   1.0000   1.0000   1.0000   1.0000   1.0000
     1.0000   1.0000   0.0000   0.0000

          k = 0.5774-0.0000-0.0000 (  5018 PWs)   bands (ev):

   -90.3949 -56.8051 -56.8051 -56.8045  -4.4633  -4.4547  -4.4547  -4.4390
    -4.4388  -2.0869   1.2862   1.9607

     occupation numbers 
     1.0000   1.0000   1.0000   1.0000   1.0000   1.0000   1.0000   1.0000
     1.0000   1.0000   0.0000   0.0000

          k =-0.0000 0.2887-0.2887 (  5007 PWs)   bands (ev):

   -90.3946 -56.8054 -56.8041 -56.8033  -4.5062  -4.4792  -4.4362  -4.4164
    -4.4160  -2.7239   0.9676   3.0059

     occupation numbers 
     1.0000   1.0000   1.0000   1.0000   1.0000   1.0000   1.0000   1.0000
     1.0000   1.0000   0.0000   0.0000

          k =-0.0000 0.5774-0.0000 (  5018 PWs)   bands (ev):

   -90.3949 -56.8051 -56.8051 -56.8045  -4.4633  -4.4547  -4.4547  -4.4390
    -4.4388  -2.0869   1.2862   1.9607

     occupation numbers 
     1.0000   1.0000   1.0000   1.0000   1.0000   1.0000   1.0000   1.0000
     1.0000   1.0000   0.0000   0.0000

          k =-0.0000-0.0000-0.5774 (  5018 PWs)   bands (ev):

   -90.3949 -56.8051 -56.8051 -56.8045  -4.4633  -4.4547  -4.4547  -4.4390
    -4.4388  -2.0869   1.2862   1.9607

     occupation numbers 
     1.0000   1.0000   1.0000   1.0000   1.0000   1.0000   1.0000   1.0000
     1.0000   1.0000   0.0000   0.0000

          k =-0.2887-0.2887 0.0000 (  5007 PWs)   bands (ev):

   -90.3946 -56.8054 -56.8041 -56.8033  -4.5062  -4.4792  -4.4362  -4.4164
    -4.4160  -2.7239   0.9676   3.0059

     occupation numbers 
     1.0000   1.0000   1.0000   1.0000   1.0000   1.0000   1.0000   1.0000
     1.0000   1.0000   0.0000   0.0000

          k =-0.2887-0.0000 0.2887 (  5007 PWs)   bands (ev):

   -90.3946 -56.8054 -56.8041 -56.8033  -4.5062  -4.4792  -4.4362  -4.4164
    -4.4160  -2.7239   0.9676   3.0059

     occupation numbers 
     1.0000   1.0000   1.0000   1.0000   1.0000   1.0000   1.0000   1.0000
     1.0000   1.0000   0.0000   0.0000

          k =-0.2887-0.5774-0.2887 (  5006 PWs)   bands (ev):

   -90.3946 -56.8052 -56.8037 -56.8037  -4.4965  -4.4533  -4.4533  -4.4187
    -4.4187  -2.0825   0.8562   0.8562

     occupation numbers 
     1.0000   1.0000   1.0000   1.0000   1.0000   1.0000   1.0000   1.0000
     1.0000   1.0000   0.0000   0.0000

          k =-0.0000-0.2887 0.2887 (  5007 PWs)   bands (ev):

   -90.3946 -56.8054 -56.8041 -56.8033  -4.5062  -4.4792  -4.4362  -4.4164
    -4.4160  -2.7239   0.9676   3.0059

     occupation numbers 
     1.0000   1.0000   1.0000   1.0000   1.0000   1.0000   1.0000   1.0000
     1.0000   1.0000   0.0000   0.0000

          k =-0.0000-0.0000 0.5774 (  5018 PWs)   bands (ev):

   -90.3949 -56.8051 -56.8051 -56.8045  -4.4633  -4.4547  -4.4547  -4.4390
    -4.4388  -2.0869   1.2862   1.9607

     occupation numbers 
     1.0000   1.0000   1.0000   1.0000   1.0000   1.0000   1.0000   1.0000
     1.0000   1.0000   0.0000   0.0000

          k =-0.0000-0.5774-0.0000 (  5018 PWs)   bands (ev):

   -90.3949 -56.8051 -56.8051 -56.8045  -4.4633  -4.4547  -4.4547  -4.4390
    -4.4388  -2.0869   1.2862   1.9607

     occupation numbers 
     1.0000   1.0000   1.0000   1.0000   1.0000   1.0000   1.0000   1.0000
     1.0000   1.0000   0.0000   0.0000

          k =-0.5774-0.2887-0.2887 (  5006 PWs)   bands (ev):

   -90.3946 -56.8052 -56.8037 -56.8037  -4.4965  -4.4533  -4.4533  -4.4187
    -4.4187  -2.0825   0.8562   0.8562

     occupation numbers 
     1.0000   1.0000   1.0000   1.0000   1.0000   1.0000   1.0000   1.0000
     1.0000   1.0000   0.0000   0.0000

          k =-0.5774-0.0000-0.0000 (  5018 PWs)   bands (ev):

   -90.3949 -56.8051 -56.8051 -56.8045  -4.4633  -4.4547  -4.4547  -4.4390
    -4.4388  -2.0869   1.2862   1.9607

     occupation numbers 
     1.0000   1.0000   1.0000   1.0000   1.0000   1.0000   1.0000   1.0000
     1.0000   1.0000   0.0000   0.0000

          k =-0.5774-0.5774-0.5774 (  5006 PWs)   bands (ev):

   -90.3946 -56.8052 -56.8037 -56.8037  -4.4965  -4.4533  -4.4533  -4.4187
    -4.4187  -2.0825   0.8562   0.8562

     occupation numbers 
     1.0000   1.0000   1.0000   1.0000   1.0000   1.0000   1.0000   1.0000
     1.0000   1.0000   0.0000   0.0000

 ------ SPIN DOWN ----------


          k = 0.0000 0.0000 0.0000 (  5017 PWs)   bands (ev):

   -87.0157 -53.2864 -53.2864 -53.2864  -2.7484  -1.1986  -1.1986  -1.1986
    -1.1613  -1.1613   4.8494   4.8494

     occupation numbers 
     1.0000   1.0000   1.0000   1.0000   1.0000   0.3447   0.3447   0.3447
     0.2156   0.2156   0.0000   0.0000

          k = 0.0000 0.2887 0.2887 (  5007 PWs)   bands (ev):

   -87.0154 -53.2868 -53.2855 -53.2845  -1.9272  -1.2397  -1.1797  -1.1523
    -1.1383  -1.1108   1.5603   3.7646

     occupation numbers 
     1.0000   1.0000   1.0000   1.0000   1.0000   0.5111   0.2757   0.1891
     0.1524   0.0947   0.0000   0.0000

          k = 0.0000-0.2887-0.2887 (  5007 PWs)   bands (ev):

   -87.0154 -53.2868 -53.2855 -53.2845  -1.9272  -1.2397  -1.1797  -1.1523
    -1.1383  -1.1108   1.5603   3.7646

     occupation numbers 
     1.0000   1.0000   1.0000   1.0000   1.0000   0.5111   0.2757   0.1891
     0.1524   0.0947   0.0000   0.0000

          k = 0.2887 0.0000 0.2887 (  5007 PWs)   bands (ev):

   -87.0154 -53.2868 -53.2855 -53.2845  -1.9272  -1.2397  -1.1797  -1.1523
    -1.1383  -1.1108   1.5603   3.7646

     occupation numbers 
     1.0000   1.0000   1.0000   1.0000   1.0000   0.5111   0.2758   0.1891
     0.1524   0.0947   0.0000   0.0000

          k = 0.2887 0.2887 0.5774 (  5006 PWs)   bands (ev):

   -87.0153 -53.2866 -53.2849 -53.2849  -1.3314  -1.1933  -1.1933  -1.1352
    -1.1352  -0.9253   1.3435   1.3435

     occupation numbers 
     1.0000   1.0000   1.0000   1.0000   0.8367   0.3247   0.3247   0.1450
     0.1450   0.0006   0.0000   0.0000

          k = 0.2887-0.2887-0.0000 (  5007 PWs)   bands (ev):

   -87.0154 -53.2868 -53.2855 -53.2845  -1.9272  -1.2397  -1.1797  -1.1523
    -1.1383  -1.1108   1.5603   3.7646

     occupation numbers 
     1.0000   1.0000   1.0000   1.0000   1.0000   0.5111   0.2757   0.1891
     0.1524   0.0947   0.0000   0.0000

          k =-0.2887 0.0000-0.2887 (  5007 PWs)   bands (ev):

   -87.0154 -53.2868 -53.2855 -53.2845  -1.9272  -1.2397  -1.1797  -1.1523
    -1.1383  -1.1108   1.5603   3.7646

     occupation numbers 
     1.0000   1.0000   1.0000   1.0000   1.0000   0.5111   0.2758   0.1891
     0.1524   0.0947   0.0000   0.0000

          k =-0.2887 0.2887-0.0000 (  5007 PWs)   bands (ev):

   -87.0154 -53.2868 -53.2855 -53.2845  -1.9272  -1.2397  -1.1797  -1.1523
    -1.1383  -1.1108   1.5603   3.7646

     occupation numbers 
     1.0000   1.0000   1.0000   1.0000   1.0000   0.5111   0.2757   0.1891
     0.1524   0.0947   0.0000   0.0000

          k =-0.2887-0.2887-0.5774 (  5006 PWs)   bands (ev):

   -87.0153 -53.2866 -53.2849 -53.2849  -1.3314  -1.1933  -1.1933  -1.1352
    -1.1352  -0.9253   1.3435   1.3435

     occupation numbers 
     1.0000   1.0000   1.0000   1.0000   0.8367   0.3247   0.3247   0.1450
     0.1450   0.0006   0.0000   0.0000

          k = 0.2887 0.2887 0.0000 (  5007 PWs)   bands (ev):

   -87.0154 -53.2868 -53.2855 -53.2845  -1.9272  -1.2397  -1.1797  -1.1523
    -1.1383  -1.1108   1.5603   3.7646

     occupation numbers 
     1.0000   1.0000   1.0000   1.0000   1.0000   0.5111   0.2757   0.1891
     0.1524   0.0947   0.0000   0.0000

          k = 0.2887 0.5774 0.2887 (  5006 PWs)   bands (ev):

   -87.0153 -53.2866 -53.2849 -53.2849  -1.3314  -1.1933  -1.1933  -1.1352
    -1.1352  -0.9253   1.3435   1.3435

     occupation numbers 
     1.0000   1.0000   1.0000   1.0000   0.8367   0.3247   0.3247   0.1450
     0.1450   0.0006   0.0000   0.0000

          k = 0.2887-0.0000-0.2887 (  5007 PWs)   bands (ev):

   -87.0154 -53.2868 -53.2855 -53.2845  -1.9272  -1.2397  -1.1797  -1.1523
    -1.1383  -1.1108   1.5603   3.7646

     occupation numbers 
     1.0000   1.0000   1.0000   1.0000   1.0000   0.5111   0.2758   0.1891
     0.1524   0.0947   0.0000   0.0000

          k = 0.5774 0.2887 0.2887 (  5006 PWs)   bands (ev):

   -87.0153 -53.2866 -53.2849 -53.2849  -1.3314  -1.1933  -1.1933  -1.1352
    -1.1352  -0.9253   1.3435   1.3435

     occupation numbers 
     1.0000   1.0000   1.0000   1.0000   0.8367   0.3247   0.3247   0.1450
     0.1450   0.0006   0.0000   0.0000

          k = 0.5774 0.5774 0.5774 (  5006 PWs)   bands (ev):

   -87.0153 -53.2866 -53.2849 -53.2849  -1.3314  -1.1933  -1.1933  -1.1352
    -1.1352  -0.9253   1.3435   1.3435

     occupation numbers 
     1.0000   1.0000   1.0000   1.0000   0.8367   0.3247   0.3247   0.1450
     0.1450   0.0006   0.0000   0.0000

          k = 0.5774-0.0000-0.0000 (  5018 PWs)   bands (ev):

   -87.0157 -53.2866 -53.2866 -53.2859  -1.2985  -1.2570  -1.1438  -1.1438
    -1.1155  -1.0338   1.9296   2.5785

     occupation numbers 
     1.0000   1.0000   1.0000   1.0000   0.7387   0.5822   0.1662   0.1662
     0.1034   0.0173   0.0000   0.0000

          k =-0.0000 0.2887-0.2887 (  5007 PWs)   bands (ev):

   -87.0154 -53.2868 -53.2855 -53.2845  -1.9272  -1.2397  -1.1797  -1.1523
    -1.1383  -1.1108   1.5603   3.7646

     occupation numbers 
     1.0000   1.0000   1.0000   1.0000   1.0000   0.5111   0.2757   0.1891
     0.1524   0.0947   0.0000   0.0000

          k =-0.0000 0.5774-0.0000 (  5018 PWs)   bands (ev):

   -87.0157 -53.2866 -53.2866 -53.2859  -1.2985  -1.2570  -1.1438  -1.1438
    -1.1156  -1.0338   1.9296   2.5785

     occupation numbers 
     1.0000   1.0000   1.0000   1.0000   0.7388   0.5822   0.1662   0.1662
     0.1034   0.0173   0.0000   0.0000

          k =-0.0000-0.0000-0.5774 (  5018 PWs)   bands (ev):

   -87.0157 -53.2866 -53.2866 -53.2859  -1.2985  -1.2570  -1.1438  -1.1438
    -1.1155  -1.0338   1.9296   2.5785

     occupation numbers 
     1.0000   1.0000   1.0000   1.0000   0.7387   0.5822   0.1662   0.1662
     0.1034   0.0173   0.0000   0.0000

          k =-0.2887-0.2887 0.0000 (  5007 PWs)   bands (ev):

   -87.0154 -53.2868 -53.2855 -53.2845  -1.9272  -1.2397  -1.1797  -1.1523
    -1.1383  -1.1108   1.5603   3.7646

     occupation numbers 
     1.0000   1.0000   1.0000   1.0000   1.0000   0.5111   0.2757   0.1891
     0.1524   0.0947   0.0000   0.0000

          k =-0.2887-0.0000 0.2887 (  5007 PWs)   bands (ev):

   -87.0154 -53.2868 -53.2855 -53.2845  -1.9272  -1.2397  -1.1797  -1.1523
    -1.1383  -1.1108   1.5603   3.7646

     occupation numbers 
     1.0000   1.0000   1.0000   1.0000   1.0000   0.5111   0.2758   0.1891
     0.1524   0.0947   0.0000   0.0000

          k =-0.2887-0.5774-0.2887 (  5006 PWs)   bands (ev):

   -87.0153 -53.2866 -53.2849 -53.2849  -1.3314  -1.1933  -1.1933  -1.1352
    -1.1352  -0.9253   1.3435   1.3435

     occupation numbers 
     1.0000   1.0000   1.0000   1.0000   0.8367   0.3247   0.3247   0.1450
     0.1450   0.0006   0.0000   0.0000

          k =-0.0000-0.2887 0.2887 (  5007 PWs)   bands (ev):

   -87.0154 -53.2868 -53.2855 -53.2845  -1.9272  -1.2397  -1.1797  -1.1523
    -1.1383  -1.1108   1.5603   3.7646

     occupation numbers 
     1.0000   1.0000   1.0000   1.0000   1.0000   0.5111   0.2757   0.1891
     0.1524   0.0947   0.0000   0.0000

          k =-0.0000-0.0000 0.5774 (  5018 PWs)   bands (ev):

   -87.0157 -53.2866 -53.2866 -53.2859  -1.2985  -1.2570  -1.1438  -1.1438
    -1.1155  -1.0338   1.9296   2.5785

     occupation numbers 
     1.0000   1.0000   1.0000   1.0000   0.7387   0.5822   0.1662   0.1662
     0.1034   0.0173   0.0000   0.0000

          k =-0.0000-0.5774-0.0000 (  5018 PWs)   bands (ev):

   -87.0157 -53.2866 -53.2866 -53.2859  -1.2985  -1.2570  -1.1438  -1.1438
    -1.1156  -1.0338   1.9296   2.5785

     occupation numbers 
     1.0000   1.0000   1.0000   1.0000   0.7388   0.5822   0.1662   0.1662
     0.1034   0.0173   0.0000   0.0000

          k =-0.5774-0.2887-0.2887 (  5006 PWs)   bands (ev):

   -87.0153 -53.2866 -53.2849 -53.2849  -1.3314  -1.1933  -1.1933  -1.1352
    -1.1352  -0.9253   1.3435   1.3435

     occupation numbers 
     1.0000   1.0000   1.0000   1.0000   0.8367   0.3247   0.3247   0.1450
     0.1450   0.0006   0.0000   0.0000

          k =-0.5774-0.0000-0.0000 (  5018 PWs)   bands (ev):

   -87.0157 -53.2866 -53.2866 -53.2859  -1.2985  -1.2570  -1.1438  -1.1438
    -1.1155  -1.0338   1.9296   2.5785

     occupation numbers 
     1.0000   1.0000   1.0000   1.0000   0.7387   0.5822   0.1662   0.1662
     0.1034   0.0173   0.0000   0.0000

          k =-0.5774-0.5774-0.5774 (  5006 PWs)   bands (ev):

   -87.0153 -53.2866 -53.2849 -53.2849  -1.3314  -1.1933  -1.1933  -1.1352
    -1.1352  -0.9253   1.3435   1.3435

     occupation numbers 
     1.0000   1.0000   1.0000   1.0000   0.8367   0.3247   0.3247   0.1450
     0.1450   0.0006   0.0000   0.0000

     the Fermi energy is    -1.2370 ev

!    total energy              =    -249.88943307 Ry
     estimated scf accuracy    <          8.4E-13 Ry
     smearing contrib. (-TS)   =      -0.01010877 Ry
     internal energy E=F+TS    =    -249.87932430 Ry

     The total energy is F=E-TS. E is the sum of the following terms:
     one-electron contribution =    -254.18139110 Ry
     hartree contribution      =     124.88328575 Ry
     xc contribution           =     -34.69200278 Ry
     ewald contribution        =     -85.88921617 Ry

     total magnetization       =     4.00 Bohr mag/cell
     absolute magnetization    =     4.01 Bohr mag/cell

     convergence has been achieved in  58 iterations

     Forces acting on atoms (cartesian axes, Ry/au):

     atom    1 type  1   force =     0.00000000    0.00000000    0.00000000
     The non-local contrib.  to forces
     atom    1 type  1   force =     0.00000000   -0.00000001   -0.00000000
     The ionic contribution  to forces
     atom    1 type  1   force =    -0.00000000   -0.00000000   -0.00000000
     The local contribution  to forces
     atom    1 type  1   force =     0.00000002   -0.00000004   -0.00000000
     The core correction contribution to forces
     atom    1 type  1   force =     0.00000000   -0.00000000   -0.00000000
     The Hubbard contrib.    to forces
     atom    1 type  1   force =     0.00000000    0.00000000    0.00000000
     The SCF correction term to forces
     atom    1 type  1   force =    -0.00000003    0.00000004    0.00000000

     Total force =     0.000000     Total SCF correction =     0.000000


     Computing stress (Cartesian axis) and pressure

          total   stress  (Ry/bohr**3)                   (kbar)     P=     -267.31
  -0.00181712   0.00000000  -0.00000000         -267.31        0.00       -0.00
   0.00000000  -0.00181712   0.00000000            0.00     -267.31        0.00
  -0.00000000   0.00000000  -0.00181712           -0.00        0.00     -267.31

     kinetic stress (kbar)  17615.31     -0.00      0.00
                               -0.00  17615.31     -0.00
                                0.00     -0.00  17615.31

     local   stress (kbar) -15900.38      0.00     -0.00
                                0.00 -15900.38      0.00
                               -0.00      0.00 -15900.38

     nonloc. stress (kbar)  -2681.09      0.00     -0.00
                                0.00  -2681.09      0.00
                               -0.00      0.00  -2681.09

     hartree stress (kbar)   9596.37     -0.00      0.00
                               -0.00   9596.37     -0.00
                                0.00     -0.00   9596.37

     exc-cor stress (kbar)    -52.41      0.00      0.00
                                0.00    -52.41      0.00
                                0.00      0.00    -52.41

     corecor stress (kbar)  -2245.15      0.00     -0.00
                                0.00  -2245.15      0.00
                               -0.00      0.00  -2245.15

     ewald   stress (kbar)  -6599.96     -0.00     -0.00
                               -0.00  -6599.96     -0.00
                               -0.00     -0.00  -6599.96

     hubbard stress (kbar)      0.00      0.00      0.00
                                0.00      0.00      0.00
                                0.00      0.00      0.00

     DFT-D   stress (kbar)      0.00      0.00      0.00
                                0.00      0.00      0.00
                                0.00      0.00      0.00

     XDM     stress (kbar)      0.00      0.00      0.00
                                0.00      0.00      0.00
                                0.00      0.00      0.00

     dft-nl  stress (kbar)      0.00      0.00      0.00
                                0.00      0.00      0.00
                                0.00      0.00      0.00

     TS-vdW  stress (kbar)      0.00      0.00      0.00
                                0.00      0.00      0.00
                                0.00      0.00      0.00

     MDB     stress (kbar)      0.00      0.00      0.00
                                0.00      0.00      0.00
                                0.00      0.00      0.00

     3D-RISM stress (kbar)      0.00      0.00      0.00
                                0.00      0.00      0.00
                                0.00      0.00      0.00


     Writing all to output data dir ./out/aiida.save/ :
     XML data file, charge density, pseudopotentials, collected wavefunctions

     init_run     :      1.47s CPU      1.51s WALL (       1 calls)
     electrons    :    156.99s CPU    157.40s WALL (       1 calls)
     forces       :      0.25s CPU      0.25s WALL (       1 calls)
     stress       :      1.45s CPU      1.45s WALL (       1 calls)

     Called by init_run:
     wfcinit      :      1.14s CPU      1.16s WALL (       1 calls)
     wfcinit:atom :      0.03s CPU      0.03s WALL (      54 calls)
     wfcinit:wfcr :      1.04s CPU      1.06s WALL (      54 calls)
     potinit      :      0.03s CPU      0.04s WALL (       1 calls)
     hinit0       :      0.28s CPU      0.29s WALL (       1 calls)

     Called by electrons:
     c_bands      :    131.13s CPU    131.51s WALL (      58 calls)
     sum_band     :     24.21s CPU     24.24s WALL (      58 calls)
     v_of_rho     :      0.83s CPU      0.83s WALL (      59 calls)
     v_h          :      0.06s CPU      0.06s WALL (      59 calls)
     v_xc         :      0.79s CPU      0.79s WALL (      61 calls)
     mix_rho      :      0.75s CPU      0.75s WALL (      58 calls)

     Called by c_bands:
     init_us_2    :      4.88s CPU      4.90s WALL (    6426 calls)
     cegterg      :    123.33s CPU    123.66s WALL (    3132 calls)

     Called by sum_band:
     sum_band:wei :      0.01s CPU      0.01s WALL (      58 calls)
     sum_band:loo :     23.99s CPU     24.02s WALL (      58 calls)
     sum_band:buf :      0.25s CPU      0.25s WALL (    3132 calls)
     sum_band:ini :      2.44s CPU      2.45s WALL (    3132 calls)

     Called by *egterg:
     cdiaghg      :      0.69s CPU      0.69s WALL (    7468 calls)
     cegterg:over :      7.54s CPU      7.56s WALL (    4336 calls)
     cegterg:upda :      3.65s CPU      3.66s WALL (    4336 calls)
     cegterg:last :      4.47s CPU      4.48s WALL (    3930 calls)
     h_psi        :    103.10s CPU    103.41s WALL (    7522 calls)
     g_psi        :      0.59s CPU      0.59s WALL (    4336 calls)

     Called by h_psi:
     h_psi:calbec :      6.01s CPU      6.02s WALL (    7522 calls)
     vloc_psi     :     91.86s CPU     92.14s WALL (    7522 calls)
     add_vuspsi   :      4.77s CPU      4.78s WALL (    7522 calls)

     General routines
     calbec       :      6.21s CPU      6.22s WALL (    7792 calls)
     fft          :      0.39s CPU      0.40s WALL (     301 calls)
     ffts         :      0.08s CPU      0.08s WALL (     116 calls)
     fftw         :     99.72s CPU    100.01s WALL (  196272 calls)

     Parallel routines

     PWSCF        :   2m40.21s CPU   2m40.71s WALL


   This run was terminated on:   9:34:49   1Jul2024            

=------------------------------------------------------------------------------=
   JOB DONE.
=------------------------------------------------------------------------------=
