
     Program PWSCF v.7.3.1 starts on  2Jul2024 at 11:34:28 

     This program is part of the open-source Quantum ESPRESSO suite
     for quantum simulation of materials; please cite
         "P. Giannozzi et al., J. Phys.:Condens. Matter 21 395502 (2009);
         "P. Giannozzi et al., J. Phys.:Condens. Matter 29 465901 (2017);
         "P. Giannozzi et al., J. Chem. Phys. 152 154105 (2020);
          URL http://www.quantum-espresso.org", 
     in publications or presentations arising from this work. More details at
     http://www.quantum-espresso.org/quote

     Parallel version (MPI), running on     1 processors

     MPI processes distributed on     1 nodes
     273 MiB available memory on the printing compute node when the environment starts

     Reading input from Fe_moveatom.in

     Current dimensions of program PWSCF are:
     Max number of different atomic species (ntypx) = 10
     Max number of k-points (npk) =  40000
     Max angular momentum in pseudopotentials (lmaxx) =  4

     IMPORTANT: XC functional enforced from input :
     Exchange-correlation= SLA+PW
                           (   1   4   0   0   0   0   0)
     Any further DFT definition will be discarded
     Please, verify this is what you really want


     Subspace diagonalization in iterative solution of the eigenvalue problem:
     a serial algorithm will be used


     G-vector sticks info
     --------------------
     sticks:   dense  smooth     PW     G-vecs:    dense   smooth      PW
     Sum        1595    1595    471                40143    40143    6459

     Using Slab Decomposition



     bravais-lattice index     =            0
     lattice parameter (alat)  =       9.3938  a.u.
     unit-cell volume          =     638.1220 (a.u.)^3
     number of atoms/cell      =            1
     number of atomic types    =            1
     number of electrons       =        16.00
     number of Kohn-Sham states=           12
     kinetic-energy cutoff     =      60.0000  Ry
     charge density cutoff     =     240.0000  Ry
     scf convergence threshold =      1.0E-12
     mixing beta               =       0.7000
     number of iterations used =            8  plain     mixing
     Exchange-correlation= SLA+PW
                           (   1   4   0   0   0   0   0)
     Hubbard projectors: ortho-atomic
     Hubbard parameters of DFT+U (Dudarev formulation) in eV:
     U(Fe-3d) =  0.0000

     Internal variables: lda_plus_u =T, lda_plus_u_kind = 0

     celldm(1)=   9.393812  celldm(2)=   0.000000  celldm(3)=   0.000000
     celldm(4)=   0.000000  celldm(5)=   0.000000  celldm(6)=   0.000000

     crystal axes: (cart. coord. in units of alat)
               a(1) = (  -0.577350   0.577350   0.577350 )  
               a(2) = (   0.577350  -0.577350   0.577350 )  
               a(3) = (   0.577350   0.577350  -0.577350 )  

     reciprocal axes: (cart. coord. in units 2 pi/alat)
               b(1) = (  0.000000  0.866025  0.866025 )  
               b(2) = (  0.866025  0.000000  0.866025 )  
               b(3) = (  0.866025  0.866025  0.000000 )  


     PseudoPot. # 1 for Fe read from file:
     ./pseudo/Fe.upf
     MD5 check sum: b1fb9d3cb1d156aba92c681262384fac
     Pseudo is Norm-conserving + core correction, Zval = 16.0
     Generated using ONCVPSP code by D. R. Hamann
     Using radial grid of 1408 points,  6 beta functions with: 
                l(1) =   0
                l(2) =   0
                l(3) =   1
                l(4) =   1
                l(5) =   2
                l(6) =   2

     atomic species   valence    mass     pseudopotential
     Fe               16.00    55.84500     Fe( 1.00)

     Starting magnetic structure 
     atomic species   magnetization
     Fe              0.670

     No symmetry found


                                    s                        frac. trans.

      isym =  1     identity                                     

 cryst.   s( 1) = (     1          0          0      )
                  (     0          1          0      )
                  (     0          0          1      )

 cart.    s( 1) = (  1.0000000  0.0000000  0.0000000 )
                  (  0.0000000  1.0000000  0.0000000 )
                  (  0.0000000  0.0000000  1.0000000 )


   Cartesian axes

     site n.     atom                  positions (alat units)
         1        Fe     tau(   1) = (   0.0000000   0.0000000   0.0000000  )

   Crystallographic axes

     site n.     atom                  positions (cryst. coord.)
         1        Fe     tau(   1) = (  0.0000000  0.0000000  0.0000000  )

     number of k points=    27  Gaussian smearing, width (Ry)=  0.0100
                       cart. coord. in units 2pi/alat
        k(    1) = (   0.0000000   0.0000000   0.0000000), wk =   0.0370370
        k(    2) = (   0.2886751   0.2886751   0.0000000), wk =   0.0370370
        k(    3) = (  -0.2886751  -0.2886751   0.0000000), wk =   0.0370370
        k(    4) = (   0.2886751   0.0000000   0.2886751), wk =   0.0370370
        k(    5) = (   0.5773503   0.2886751   0.2886751), wk =   0.0370370
        k(    6) = (  -0.0000000  -0.2886751   0.2886751), wk =   0.0370370
        k(    7) = (  -0.2886751   0.0000000  -0.2886751), wk =   0.0370370
        k(    8) = (  -0.0000000   0.2886751  -0.2886751), wk =   0.0370370
        k(    9) = (  -0.5773503  -0.2886751  -0.2886751), wk =   0.0370370
        k(   10) = (   0.0000000   0.2886751   0.2886751), wk =   0.0370370
        k(   11) = (   0.2886751   0.5773503   0.2886751), wk =   0.0370370
        k(   12) = (  -0.2886751  -0.0000000   0.2886751), wk =   0.0370370
        k(   13) = (   0.2886751   0.2886751   0.5773503), wk =   0.0370370
        k(   14) = (   0.5773503   0.5773503   0.5773503), wk =   0.0370370
        k(   15) = (  -0.0000000  -0.0000000   0.5773503), wk =   0.0370370
        k(   16) = (  -0.2886751   0.2886751  -0.0000000), wk =   0.0370370
        k(   17) = (  -0.0000000   0.5773503  -0.0000000), wk =   0.0370370
        k(   18) = (  -0.5773503  -0.0000000  -0.0000000), wk =   0.0370370
        k(   19) = (   0.0000000  -0.2886751  -0.2886751), wk =   0.0370370
        k(   20) = (   0.2886751  -0.0000000  -0.2886751), wk =   0.0370370
        k(   21) = (  -0.2886751  -0.5773503  -0.2886751), wk =   0.0370370
        k(   22) = (   0.2886751  -0.2886751  -0.0000000), wk =   0.0370370
        k(   23) = (   0.5773503  -0.0000000  -0.0000000), wk =   0.0370370
        k(   24) = (  -0.0000000  -0.5773503  -0.0000000), wk =   0.0370370
        k(   25) = (  -0.2886751  -0.2886751  -0.5773503), wk =   0.0370370
        k(   26) = (  -0.0000000  -0.0000000  -0.5773503), wk =   0.0370370
        k(   27) = (  -0.5773503  -0.5773503  -0.5773503), wk =   0.0370370

                       cryst. coord.
        k(    1) = (   0.0000000   0.0000000   0.0000000), wk =   0.0370370
        k(    2) = (   0.0000000   0.0000000   0.3333333), wk =   0.0370370
        k(    3) = (   0.0000000   0.0000000  -0.3333333), wk =   0.0370370
        k(    4) = (   0.0000000   0.3333333   0.0000000), wk =   0.0370370
        k(    5) = (   0.0000000   0.3333333   0.3333333), wk =   0.0370370
        k(    6) = (   0.0000000   0.3333333  -0.3333333), wk =   0.0370370
        k(    7) = (   0.0000000  -0.3333333   0.0000000), wk =   0.0370370
        k(    8) = (   0.0000000  -0.3333333   0.3333333), wk =   0.0370370
        k(    9) = (   0.0000000  -0.3333333  -0.3333333), wk =   0.0370370
        k(   10) = (   0.3333333   0.0000000   0.0000000), wk =   0.0370370
        k(   11) = (   0.3333333   0.0000000   0.3333333), wk =   0.0370370
        k(   12) = (   0.3333333   0.0000000  -0.3333333), wk =   0.0370370
        k(   13) = (   0.3333333   0.3333333   0.0000000), wk =   0.0370370
        k(   14) = (   0.3333333   0.3333333   0.3333333), wk =   0.0370370
        k(   15) = (   0.3333333   0.3333333  -0.3333333), wk =   0.0370370
        k(   16) = (   0.3333333  -0.3333333   0.0000000), wk =   0.0370370
        k(   17) = (   0.3333333  -0.3333333   0.3333333), wk =   0.0370370
        k(   18) = (   0.3333333  -0.3333333  -0.3333333), wk =   0.0370370
        k(   19) = (  -0.3333333   0.0000000   0.0000000), wk =   0.0370370
        k(   20) = (  -0.3333333   0.0000000   0.3333333), wk =   0.0370370
        k(   21) = (  -0.3333333   0.0000000  -0.3333333), wk =   0.0370370
        k(   22) = (  -0.3333333   0.3333333   0.0000000), wk =   0.0370370
        k(   23) = (  -0.3333333   0.3333333   0.3333333), wk =   0.0370370
        k(   24) = (  -0.3333333   0.3333333  -0.3333333), wk =   0.0370370
        k(   25) = (  -0.3333333  -0.3333333   0.0000000), wk =   0.0370370
        k(   26) = (  -0.3333333  -0.3333333   0.3333333), wk =   0.0370370
        k(   27) = (  -0.3333333  -0.3333333  -0.3333333), wk =   0.0370370

     Dense  grid:    40143 G-vectors     FFT dimensions: (  48,  48,  48)

     Dynamical RAM for                 wfc:       0.92 MB

     Dynamical RAM for     wfc (w. buffer):      50.43 MB

     Dynamical RAM for             U proj.:       0.38 MB

     Dynamical RAM for  U proj. (w. buff.):      21.01 MB

     Dynamical RAM for           str. fact:       0.61 MB

     Dynamical RAM for           local pot:       0.00 MB

     Dynamical RAM for          nlocal pot:       1.38 MB

     Dynamical RAM for                qrad:       1.24 MB

     Dynamical RAM for          rho,v,vnew:       8.74 MB

     Dynamical RAM for               rhoin:       2.91 MB

     Dynamical RAM for            rho*nmix:      19.60 MB

     Dynamical RAM for           G-vectors:       2.60 MB

     Dynamical RAM for          h,s,v(r/c):       0.03 MB

     Dynamical RAM for          <psi|beta>:       0.00 MB

     Dynamical RAM for                 psi:       1.83 MB

     Dynamical RAM for                hpsi:       1.83 MB

     Dynamical RAM for      wfcinit/wfcrot:       1.84 MB

     Estimated static dynamical RAM per process >      95.22 MB

     Estimated max dynamical RAM per process >     118.52 MB
     Generating pointlists ...
     new r_m :   0.4125 (alat units)  3.8749 (a.u.) for type    1

     Initial potential from superposition of free atoms

     starting charge      15.9997, renormalised to      16.0000

     HUBBARD ENERGY =    0.0000  (Ry)

     STARTING HUBBARD OCCUPATIONS:

     =================== HUBBARD OCCUPATIONS ===================
     ------------------------ ATOM    1 ------------------------
     Tr[ns(  1)] (up, down, total) =   5.00000  1.00000  6.00000
     Atomic magnetic moment for atom   1 =   4.00000
     SPIN  1
     eigenvalues:
       1.000  1.000  1.000  1.000  1.000
     eigenvectors (columns):
       1.000  0.000  0.000  0.000  0.000
       0.000  1.000  0.000  0.000  0.000
       0.000  0.000  1.000  0.000  0.000
       0.000  0.000  0.000  1.000  0.000
       0.000  0.000  0.000  0.000  1.000
     occupation matrix ns (before diag.):
       1.000  0.000  0.000  0.000  0.000
       0.000  1.000  0.000  0.000  0.000
       0.000  0.000  1.000  0.000  0.000
       0.000  0.000  0.000  1.000  0.000
       0.000  0.000  0.000  0.000  1.000
     SPIN  2
     eigenvalues:
       0.200  0.200  0.200  0.200  0.200
     eigenvectors (columns):
       1.000  0.000  0.000  0.000  0.000
       0.000  1.000  0.000  0.000  0.000
       0.000  0.000  1.000  0.000  0.000
       0.000  0.000  0.000  1.000  0.000
       0.000  0.000  0.000  0.000  1.000
     occupation matrix ns (before diag.):
       0.200  0.000  0.000  0.000  0.000
       0.000  0.200  0.000  0.000  0.000
       0.000  0.000  0.200  0.000  0.000
       0.000  0.000  0.000  0.200  0.000
       0.000  0.000  0.000  0.000  0.200

     Number of occupied Hubbard levels =    6.0000

     Atomic wfc used for Hubbard projectors are orthogonalized

     Starting wfcs are   10 randomized atomic wfcs +    2 random wfcs

     total cpu time spent up to now is        1.7 secs

     Self-consistent Calculation

     iteration #  1     ecut=    60.00 Ry     beta= 0.70
     Davidson diagonalization with overlap

---- Real-time Memory Report at c_bands before calling an iterative solver
           126 MiB given to the printing process from OS
             0 MiB allocation reported by mallinfo(arena+hblkhd)
           163 MiB available memory on the node where the printing process lives
------------------
     ethr =  1.00E-02,  avg # of iterations =  6.6

     =================== HUBBARD OCCUPATIONS ===================
     ------------------------ ATOM    1 ------------------------
     Tr[ns(  1)] (up, down, total) =   4.98729  0.01051  4.99780
     Atomic magnetic moment for atom   1 =   4.97678
     SPIN  1
     eigenvalues:
       0.997  0.997  0.997  0.997  0.997
     eigenvectors (columns):
      -0.135 -0.986 -0.020  0.045 -0.090
      -0.035  0.062  0.695  0.176 -0.693
      -0.206 -0.047  0.679  0.054  0.701
      -0.967  0.142 -0.155 -0.089 -0.117
       0.064 -0.050  0.176 -0.978 -0.079
     occupation matrix ns (before diag.):
       0.997  0.000 -0.000 -0.000 -0.000
       0.000  0.997 -0.000 -0.000 -0.000
      -0.000 -0.000  0.997 -0.000 -0.000
      -0.000 -0.000 -0.000  0.997  0.000
      -0.000 -0.000 -0.000  0.000  0.997
     SPIN  2
     eigenvalues:
       0.001  0.001  0.003  0.003  0.003
     eigenvectors (columns):
       0.202  0.979  0.002 -0.001  0.003
      -0.000  0.000 -0.838  0.218  0.499
       0.001 -0.004  0.286 -0.604  0.744
      -0.979  0.202  0.001 -0.001  0.001
       0.000 -0.001  0.464  0.766  0.444
     occupation matrix ns (before diag.):
       0.001 -0.000  0.000  0.000  0.000
      -0.000  0.003  0.000 -0.000  0.000
       0.000  0.000  0.003  0.000 -0.000
       0.000 -0.000  0.000  0.001  0.000
       0.000  0.000 -0.000  0.000  0.003

     Number of occupied Hubbard levels =    4.9978

     HUBBARD ENERGY =    0.0000  (Ry)

     total cpu time spent up to now is        5.5 secs

     total energy              =    -249.36127450 Ry
     estimated scf accuracy    <       1.36085305 Ry

     total magnetization       =     6.00 Bohr mag/cell
     absolute magnetization    =     6.00 Bohr mag/cell

     iteration #  2     ecut=    60.00 Ry     beta= 0.70
     Davidson diagonalization with overlap

---- Real-time Memory Report at c_bands before calling an iterative solver
           150 MiB given to the printing process from OS
             0 MiB allocation reported by mallinfo(arena+hblkhd)
           137 MiB available memory on the node where the printing process lives
------------------
     ethr =  8.51E-03,  avg # of iterations =  2.0

     =================== HUBBARD OCCUPATIONS ===================
     ------------------------ ATOM    1 ------------------------
     Tr[ns(  1)] (up, down, total) =   4.93285  2.99575  7.92860
     Atomic magnetic moment for atom   1 =   1.93710
     SPIN  1
     eigenvalues:
       0.987  0.987  0.987  0.987  0.987
     eigenvectors (columns):
      -0.201 -0.979  0.007  0.029 -0.024
       0.009  0.033  0.227  0.954 -0.191
       0.039 -0.021  0.718 -0.032  0.694
       0.979 -0.201 -0.036  0.002 -0.023
      -0.011 -0.011 -0.657  0.295  0.694
     occupation matrix ns (before diag.):
       0.987  0.000 -0.000  0.000 -0.000
       0.000  0.987 -0.000 -0.000 -0.000
      -0.000 -0.000  0.987 -0.000  0.000
       0.000 -0.000 -0.000  0.987  0.000
      -0.000 -0.000  0.000  0.000  0.987
     SPIN  2
     eigenvalues:
       0.585  0.597  0.599  0.605  0.611
     eigenvectors (columns):
       0.639  0.758 -0.112 -0.055 -0.044
      -0.097  0.026  0.029 -0.044 -0.994
       0.019 -0.124 -0.907  0.399 -0.050
       0.763 -0.631  0.109  0.003 -0.087
       0.023  0.103  0.390  0.914 -0.029
     occupation matrix ns (before diag.):
       0.592  0.001 -0.000 -0.006 -0.001
       0.001  0.610  0.001  0.002  0.000
      -0.000  0.001  0.600 -0.000  0.002
      -0.006  0.002 -0.000  0.590 -0.000
      -0.001  0.000  0.002 -0.000  0.604

     Number of occupied Hubbard levels =    7.9286

     HUBBARD ENERGY =    0.0000  (Ry)

     total cpu time spent up to now is        8.7 secs

     total energy              =    -249.57581184 Ry
     estimated scf accuracy    <       4.04427305 Ry

     total magnetization       =     2.00 Bohr mag/cell
     absolute magnetization    =     2.04 Bohr mag/cell

     iteration #  3     ecut=    60.00 Ry     beta= 0.70
     Davidson diagonalization with overlap

---- Real-time Memory Report at c_bands before calling an iterative solver
           153 MiB given to the printing process from OS
             0 MiB allocation reported by mallinfo(arena+hblkhd)
           157 MiB available memory on the node where the printing process lives
------------------
     ethr =  8.51E-03,  avg # of iterations =  2.0

     =================== HUBBARD OCCUPATIONS ===================
     ------------------------ ATOM    1 ------------------------
     Tr[ns(  1)] (up, down, total) =   4.99412  1.54162  6.53574
     Atomic magnetic moment for atom   1 =   3.45250
     SPIN  1
     eigenvalues:
       0.999  0.999  0.999  0.999  0.999
     eigenvectors (columns):
      -0.642 -0.767 -0.007 -0.002 -0.012
       0.025 -0.007  0.079  0.250 -0.965
      -0.004  0.008 -0.854  0.516  0.063
      -0.766  0.642  0.009  0.002 -0.023
      -0.005 -0.007  0.514  0.819  0.254
     occupation matrix ns (before diag.):
       0.999  0.000  0.000 -0.000 -0.000
       0.000  0.999 -0.000  0.000 -0.000
       0.000 -0.000  0.999 -0.000  0.000
      -0.000  0.000 -0.000  0.999 -0.000
      -0.000 -0.000  0.000 -0.000  0.999
     SPIN  2
     eigenvalues:
       0.290  0.293  0.319  0.320  0.320
     eigenvectors (columns):
       0.736  0.676 -0.001 -0.001 -0.009
      -0.007  0.010  0.982  0.188  0.012
       0.003  0.007 -0.151  0.744  0.651
      -0.676  0.736 -0.011 -0.003 -0.004
       0.003  0.006  0.114 -0.641  0.759
     occupation matrix ns (before diag.):
       0.291 -0.000 -0.000  0.001 -0.000
      -0.000  0.319  0.000 -0.000 -0.000
      -0.000  0.000  0.320 -0.000  0.000
       0.001 -0.000 -0.000  0.292 -0.000
      -0.000 -0.000  0.000 -0.000  0.320

     Number of occupied Hubbard levels =    6.5357

     HUBBARD ENERGY =    0.0000  (Ry)

     total cpu time spent up to now is       11.7 secs

     total energy              =    -249.85595932 Ry
     estimated scf accuracy    <       0.26015800 Ry

     total magnetization       =     4.00 Bohr mag/cell
     absolute magnetization    =     4.00 Bohr mag/cell

     iteration #  4     ecut=    60.00 Ry     beta= 0.70
     Davidson diagonalization with overlap

---- Real-time Memory Report at c_bands before calling an iterative solver
           155 MiB given to the printing process from OS
             0 MiB allocation reported by mallinfo(arena+hblkhd)
           155 MiB available memory on the node where the printing process lives
------------------
     ethr =  1.63E-03,  avg # of iterations =  2.0

     =================== HUBBARD OCCUPATIONS ===================
     ------------------------ ATOM    1 ------------------------
     Tr[ns(  1)] (up, down, total) =   4.99687  1.03912  6.03598
     Atomic magnetic moment for atom   1 =   3.95775
     SPIN  1
     eigenvalues:
       0.999  0.999  0.999  0.999  0.999
     eigenvectors (columns):
       0.001 -0.003 -0.009 -0.648  0.761
       0.029  0.504  0.863 -0.016 -0.000
      -0.924 -0.316  0.215 -0.000  0.002
      -0.001 -0.007 -0.010 -0.761 -0.649
       0.381 -0.804  0.457 -0.001  0.001
     occupation matrix ns (before diag.):
       0.999  0.000  0.000 -0.000  0.000
       0.000  0.999  0.000  0.000  0.000
       0.000  0.000  0.999 -0.000  0.000
      -0.000  0.000 -0.000  0.999 -0.000
       0.000  0.000  0.000 -0.000  0.999
     SPIN  2
     eigenvalues:
       0.168  0.181  0.222  0.230  0.238
     eigenvectors (columns):
       0.629  0.777 -0.000 -0.005  0.016
      -0.028  0.002  0.029  0.017  0.999
       0.007 -0.007  0.934 -0.356 -0.021
       0.777 -0.629 -0.008  0.006  0.023
      -0.002 -0.005 -0.355 -0.934  0.026
     occupation matrix ns (before diag.):
       0.176  0.001  0.000 -0.006  0.000
       0.001  0.238 -0.000  0.002  0.000
       0.000 -0.000  0.223 -0.000  0.002
      -0.006  0.002 -0.000  0.173 -0.000
       0.000  0.000  0.002 -0.000  0.229

     Number of occupied Hubbard levels =    6.0360

     HUBBARD ENERGY =    0.0000  (Ry)

     total cpu time spent up to now is       14.6 secs

     total energy              =    -249.88190363 Ry
     estimated scf accuracy    <       0.07545122 Ry

     total magnetization       =     4.00 Bohr mag/cell
     absolute magnetization    =     4.10 Bohr mag/cell

     iteration #  5     ecut=    60.00 Ry     beta= 0.70
     Davidson diagonalization with overlap

---- Real-time Memory Report at c_bands before calling an iterative solver
           158 MiB given to the printing process from OS
             0 MiB allocation reported by mallinfo(arena+hblkhd)
           154 MiB available memory on the node where the printing process lives
------------------
     ethr =  4.72E-04,  avg # of iterations =  1.1

     =================== HUBBARD OCCUPATIONS ===================
     ------------------------ ATOM    1 ------------------------
     Tr[ns(  1)] (up, down, total) =   4.99891  1.37619  6.37510
     Atomic magnetic moment for atom   1 =   3.62271
     SPIN  1
     eigenvalues:
       1.000  1.000  1.000  1.000  1.000
     eigenvectors (columns):
      -0.010  0.000 -0.001  0.782 -0.623
      -0.980 -0.199  0.024 -0.002  0.012
      -0.053  0.373  0.926 -0.003 -0.004
      -0.007 -0.005 -0.003 -0.623 -0.782
      -0.193  0.906 -0.376 -0.003 -0.000
     occupation matrix ns (before diag.):
       1.000 -0.000  0.000  0.000 -0.000
      -0.000  1.000 -0.000 -0.000 -0.000
       0.000 -0.000  1.000  0.000 -0.000
       0.000 -0.000  0.000  1.000  0.000
      -0.000 -0.000 -0.000  0.000  1.000
     SPIN  2
     eigenvalues:
       0.205  0.238  0.295  0.312  0.326
     eigenvectors (columns):
      -0.759 -0.649 -0.058 -0.007  0.004
       0.015 -0.106  0.993 -0.041 -0.022
      -0.008 -0.001 -0.004  0.378 -0.926
       0.651 -0.753 -0.090  0.002 -0.004
      -0.003 -0.008  0.046  0.925  0.378
     occupation matrix ns (before diag.):
       0.219 -0.003 -0.001  0.016 -0.001
      -0.003  0.295  0.000 -0.005 -0.001
      -0.001  0.000  0.324  0.001 -0.005
       0.016 -0.005  0.001  0.225 -0.000
      -0.001 -0.001 -0.005 -0.000  0.314

     Number of occupied Hubbard levels =    6.3751

     HUBBARD ENERGY =    0.0000  (Ry)

     total cpu time spent up to now is       17.2 secs

     total energy              =    -249.88910948 Ry
     estimated scf accuracy    <       0.00056702 Ry

     total magnetization       =     4.00 Bohr mag/cell
     absolute magnetization    =     4.02 Bohr mag/cell

     iteration #  6     ecut=    60.00 Ry     beta= 0.70
     Davidson diagonalization with overlap

---- Real-time Memory Report at c_bands before calling an iterative solver
           160 MiB given to the printing process from OS
             0 MiB allocation reported by mallinfo(arena+hblkhd)
           151 MiB available memory on the node where the printing process lives
------------------
     ethr =  3.54E-06,  avg # of iterations =  5.0

     =================== HUBBARD OCCUPATIONS ===================
     ------------------------ ATOM    1 ------------------------
     Tr[ns(  1)] (up, down, total) =   4.99904  1.40604  6.40509
     Atomic magnetic moment for atom   1 =   3.59300
     SPIN  1
     eigenvalues:
       1.000  1.000  1.000  1.000  1.000
     eigenvectors (columns):
       0.002 -0.002 -0.011 -0.656 -0.754
      -0.025 -0.016  0.999 -0.024  0.006
      -0.919  0.393 -0.017 -0.001 -0.003
      -0.001  0.000 -0.022 -0.754  0.656
       0.393  0.919  0.025 -0.002 -0.001
     occupation matrix ns (before diag.):
       1.000  0.000  0.000 -0.000  0.000
       0.000  1.000 -0.000  0.000  0.000
       0.000 -0.000  1.000 -0.000  0.000
      -0.000  0.000 -0.000  1.000  0.000
       0.000  0.000  0.000  0.000  1.000
     SPIN  2
     eigenvalues:
       0.199  0.226  0.310  0.326  0.344
     eigenvectors (columns):
       0.636  0.771  0.002 -0.004  0.020
      -0.038  0.006  0.024  0.024  0.999
       0.007 -0.009  0.923 -0.385 -0.013
       0.770 -0.637 -0.009  0.007  0.033
      -0.001 -0.004 -0.385 -0.922  0.032
     occupation matrix ns (before diag.):
       0.215  0.003  0.000 -0.014  0.000
       0.003  0.344 -0.001  0.005  0.001
       0.000 -0.001  0.312 -0.001  0.006
      -0.014  0.005 -0.001  0.210 -0.000
       0.000  0.001  0.006 -0.000  0.324

     Number of occupied Hubbard levels =    6.4051

     HUBBARD ENERGY =    0.0000  (Ry)

     total cpu time spent up to now is       21.3 secs

     total energy              =    -249.88946636 Ry
     estimated scf accuracy    <       0.00096547 Ry

     total magnetization       =     4.00 Bohr mag/cell
     absolute magnetization    =     4.01 Bohr mag/cell

     iteration #  7     ecut=    60.00 Ry     beta= 0.70
     Davidson diagonalization with overlap

---- Real-time Memory Report at c_bands before calling an iterative solver
           163 MiB given to the printing process from OS
             0 MiB allocation reported by mallinfo(arena+hblkhd)
           149 MiB available memory on the node where the printing process lives
------------------
     ethr =  3.54E-06,  avg # of iterations =  1.0

     =================== HUBBARD OCCUPATIONS ===================
     ------------------------ ATOM    1 ------------------------
     Tr[ns(  1)] (up, down, total) =   4.99901  1.40521  6.40421
     Atomic magnetic moment for atom   1 =   3.59380
     SPIN  1
     eigenvalues:
       1.000  1.000  1.000  1.000  1.000
     eigenvectors (columns):
      -0.001 -0.000  0.001  0.660 -0.752
      -0.065  0.627 -0.776  0.004  0.002
       0.918 -0.268 -0.293  0.001 -0.000
      -0.000 -0.002  0.004  0.752  0.660
      -0.392 -0.731 -0.558  0.001  0.000
     occupation matrix ns (before diag.):
       1.000  0.000  0.000 -0.000  0.000
       0.000  1.000  0.000  0.000  0.000
       0.000  0.000  1.000  0.000  0.000
      -0.000  0.000  0.000  1.000  0.000
       0.000  0.000  0.000  0.000  1.000
     SPIN  2
     eigenvalues:
       0.199  0.201  0.333  0.335  0.336
     eigenvectors (columns):
       0.671  0.741 -0.003  0.002  0.001
      -0.004  0.006  0.020 -0.222 -0.975
       0.000  0.004  0.984 -0.170  0.059
      -0.741  0.671 -0.002  0.003  0.006
      -0.000  0.002 -0.179 -0.960  0.215
     occupation matrix ns (before diag.):
       0.200 -0.000 -0.000  0.001 -0.000
      -0.000  0.336 -0.000 -0.001 -0.000
      -0.000 -0.000  0.333 -0.000  0.000
       0.001 -0.001 -0.000  0.200 -0.000
      -0.000 -0.000  0.000 -0.000  0.335

     Number of occupied Hubbard levels =    6.4042

     HUBBARD ENERGY =    0.0000  (Ry)

     total cpu time spent up to now is       24.2 secs

     total energy              =    -249.88945208 Ry
     estimated scf accuracy    <       0.00065989 Ry

     total magnetization       =     4.00 Bohr mag/cell
     absolute magnetization    =     4.01 Bohr mag/cell

     iteration #  8     ecut=    60.00 Ry     beta= 0.70
     Davidson diagonalization with overlap

---- Real-time Memory Report at c_bands before calling an iterative solver
           165 MiB given to the printing process from OS
             0 MiB allocation reported by mallinfo(arena+hblkhd)
           146 MiB available memory on the node where the printing process lives
------------------
     ethr =  3.54E-06,  avg # of iterations =  1.0

     =================== HUBBARD OCCUPATIONS ===================
     ------------------------ ATOM    1 ------------------------
     Tr[ns(  1)] (up, down, total) =   4.99904  1.41045  6.40949
     Atomic magnetic moment for atom   1 =   3.58859
     SPIN  1
     eigenvalues:
       1.000  1.000  1.000  1.000  1.000
     eigenvectors (columns):
      -0.002 -0.000 -0.001 -0.835 -0.550
      -0.997  0.031  0.073  0.001  0.001
       0.079  0.466  0.881 -0.001  0.001
      -0.000 -0.001 -0.001 -0.550  0.835
      -0.006  0.884 -0.467  0.000  0.001
     occupation matrix ns (before diag.):
       1.000 -0.000  0.000 -0.000 -0.000
      -0.000  1.000  0.000 -0.000 -0.000
       0.000  0.000  1.000  0.000 -0.000
      -0.000 -0.000  0.000  1.000  0.000
      -0.000 -0.000 -0.000  0.000  1.000
     SPIN  2
     eigenvalues:
       0.208  0.211  0.330  0.331  0.331
     eigenvectors (columns):
       0.713 -0.701 -0.004 -0.003  0.003
      -0.005 -0.012  0.057  0.604 -0.795
       0.001 -0.004  0.956 -0.262 -0.130
      -0.701 -0.713 -0.003 -0.008  0.009
       0.000 -0.002  0.287  0.753  0.593
     occupation matrix ns (before diag.):
       0.209 -0.001 -0.000  0.001 -0.000
      -0.001  0.331 -0.000 -0.001 -0.000
      -0.000 -0.000  0.330 -0.000 -0.000
       0.001 -0.001 -0.000  0.209 -0.000
      -0.000 -0.000 -0.000 -0.000  0.331

     Number of occupied Hubbard levels =    6.4095

     HUBBARD ENERGY =    0.0000  (Ry)

     total cpu time spent up to now is       26.8 secs

     total energy              =    -249.88912886 Ry
     estimated scf accuracy    <       0.00086189 Ry

     total magnetization       =     4.00 Bohr mag/cell
     absolute magnetization    =     4.01 Bohr mag/cell

     iteration #  9     ecut=    60.00 Ry     beta= 0.70
     Davidson diagonalization with overlap

---- Real-time Memory Report at c_bands before calling an iterative solver
           167 MiB given to the printing process from OS
             0 MiB allocation reported by mallinfo(arena+hblkhd)
           139 MiB available memory on the node where the printing process lives
------------------
     ethr =  3.54E-06,  avg # of iterations =  2.0

     =================== HUBBARD OCCUPATIONS ===================
     ------------------------ ATOM    1 ------------------------
     Tr[ns(  1)] (up, down, total) =   4.99877  1.36182  6.36058
     Atomic magnetic moment for atom   1 =   3.63695
     SPIN  1
     eigenvalues:
       1.000  1.000  1.000  1.000  1.000
     eigenvectors (columns):
      -0.010 -0.029 -0.010  0.702  0.712
       0.369  0.927  0.032 -0.018  0.061
       0.584 -0.259  0.769  0.011 -0.002
      -0.015 -0.054  0.005 -0.712  0.700
      -0.723  0.265  0.638  0.005  0.005
     occupation matrix ns (before diag.):
       1.000  0.000  0.000  0.000  0.000
       0.000  1.000 -0.000  0.000  0.000
       0.000 -0.000  1.000 -0.000  0.000
       0.000  0.000 -0.000  1.000  0.000
       0.000  0.000  0.000  0.000  1.000
     SPIN  2
     eigenvalues:
       0.250  0.255  0.273  0.287  0.297
     eigenvectors (columns):
      -0.441  0.858 -0.053  0.257  0.039
      -0.233 -0.392 -0.158  0.876  0.009
       0.046 -0.016 -0.638 -0.117  0.760
       0.865  0.332 -0.050  0.370 -0.031
       0.017 -0.012  0.750  0.128  0.648
     occupation matrix ns (before diag.):
       0.256  0.007  0.001  0.005  0.001
       0.007  0.280 -0.001  0.012  0.002
       0.001 -0.001  0.287 -0.002  0.011
       0.005  0.012 -0.002  0.256 -0.000
       0.001  0.002  0.011 -0.000  0.283

     Number of occupied Hubbard levels =    6.3606

     HUBBARD ENERGY =    0.0000  (Ry)

     total cpu time spent up to now is       30.1 secs

     total energy              =    -249.88944033 Ry
     estimated scf accuracy    <       0.00059038 Ry

     total magnetization       =     4.00 Bohr mag/cell
     absolute magnetization    =     4.02 Bohr mag/cell

     iteration # 10     ecut=    60.00 Ry     beta= 0.70
     Davidson diagonalization with overlap

---- Real-time Memory Report at c_bands before calling an iterative solver
           170 MiB given to the printing process from OS
             0 MiB allocation reported by mallinfo(arena+hblkhd)
           204 MiB available memory on the node where the printing process lives
------------------
     ethr =  3.54E-06,  avg # of iterations =  1.5

     =================== HUBBARD OCCUPATIONS ===================
     ------------------------ ATOM    1 ------------------------
     Tr[ns(  1)] (up, down, total) =   4.99857  1.34730  6.34587
     Atomic magnetic moment for atom   1 =   3.65126
     SPIN  1
     eigenvalues:
       1.000  1.000  1.000  1.000  1.000
     eigenvectors (columns):
      -0.008 -0.028  0.006 -0.685 -0.728
       0.012 -0.926  0.374  0.051 -0.009
      -0.786  0.223  0.577 -0.001  0.006
       0.004 -0.042  0.012 -0.727  0.686
      -0.618 -0.301 -0.726  0.007  0.005
     occupation matrix ns (before diag.):
       1.000 -0.000 -0.000 -0.000 -0.000
      -0.000  1.000  0.000 -0.000 -0.000
      -0.000  0.000  1.000  0.000 -0.000
      -0.000 -0.000  0.000  1.000 -0.000
      -0.000 -0.000 -0.000 -0.000  1.000
     SPIN  2
     eigenvalues:
       0.248  0.256  0.257  0.290  0.297
     eigenvectors (columns):
       0.011 -0.065  0.036  0.702  0.708
      -0.007 -0.842  0.520 -0.139  0.033
       0.803  0.308  0.511  0.006 -0.016
      -0.014 -0.108  0.057  0.699 -0.705
       0.596 -0.425 -0.681 -0.006 -0.007
     occupation matrix ns (before diag.):
       0.293 -0.002 -0.000 -0.004 -0.000
      -0.002  0.257  0.001 -0.004 -0.001
      -0.000  0.001  0.251  0.001 -0.004
      -0.004 -0.004  0.001  0.293  0.000
      -0.000 -0.001 -0.004  0.000  0.254

     Number of occupied Hubbard levels =    6.3459

     HUBBARD ENERGY =    0.0000  (Ry)

     total cpu time spent up to now is       34.0 secs

     total energy              =    -249.88926070 Ry
     estimated scf accuracy    <       0.00134677 Ry

     total magnetization       =     4.00 Bohr mag/cell
     absolute magnetization    =     4.02 Bohr mag/cell

     iteration # 11     ecut=    60.00 Ry     beta= 0.70
     Davidson diagonalization with overlap

---- Real-time Memory Report at c_bands before calling an iterative solver
           170 MiB given to the printing process from OS
             0 MiB allocation reported by mallinfo(arena+hblkhd)
           216 MiB available memory on the node where the printing process lives
------------------
     ethr =  3.54E-06,  avg # of iterations =  1.5

     =================== HUBBARD OCCUPATIONS ===================
     ------------------------ ATOM    1 ------------------------
     Tr[ns(  1)] (up, down, total) =   4.99875  1.40186  6.40061
     Atomic magnetic moment for atom   1 =   3.59689
     SPIN  1
     eigenvalues:
       1.000  1.000  1.000  1.000  1.000
     eigenvectors (columns):
       0.004 -0.001  0.001 -0.689 -0.725
       0.895 -0.442 -0.061 -0.002  0.007
       0.095  0.056  0.994  0.002  0.000
       0.005 -0.003 -0.001  0.725 -0.689
       0.436  0.895 -0.093  0.000  0.000
     occupation matrix ns (before diag.):
       1.000 -0.000 -0.000  0.000 -0.000
      -0.000  1.000 -0.000 -0.000 -0.000
      -0.000 -0.000  1.000  0.000 -0.000
       0.000 -0.000  0.000  1.000 -0.000
      -0.000 -0.000 -0.000 -0.000  1.000
     SPIN  2
     eigenvalues:
       0.262  0.263  0.264  0.306  0.307
     eigenvectors (columns):
       0.005 -0.004 -0.000 -0.748 -0.664
      -0.979  0.199  0.051 -0.001 -0.008
       0.148  0.510  0.847 -0.000 -0.002
       0.005 -0.003 -0.001  0.664 -0.748
       0.142  0.837 -0.529 -0.001 -0.003
     occupation matrix ns (before diag.):
       0.307  0.000  0.000  0.001  0.000
       0.000  0.262  0.000  0.000  0.000
       0.000  0.000  0.263  0.000 -0.000
       0.001  0.000  0.000  0.307  0.000
       0.000  0.000 -0.000  0.000  0.263

     Number of occupied Hubbard levels =    6.4006

     HUBBARD ENERGY =    0.0000  (Ry)

     total cpu time spent up to now is       38.3 secs

     total energy              =    -249.88942565 Ry
     estimated scf accuracy    <       0.00003311 Ry

     total magnetization       =     4.00 Bohr mag/cell
     absolute magnetization    =     4.01 Bohr mag/cell

     iteration # 12     ecut=    60.00 Ry     beta= 0.70
     Davidson diagonalization with overlap

---- Real-time Memory Report at c_bands before calling an iterative solver
           170 MiB given to the printing process from OS
             0 MiB allocation reported by mallinfo(arena+hblkhd)
           199 MiB available memory on the node where the printing process lives
------------------
     ethr =  2.07E-07,  avg # of iterations =  1.6

     =================== HUBBARD OCCUPATIONS ===================
     ------------------------ ATOM    1 ------------------------
     Tr[ns(  1)] (up, down, total) =   4.99871  1.39554  6.39425
     Atomic magnetic moment for atom   1 =   3.60318
     SPIN  1
     eigenvalues:
       1.000  1.000  1.000  1.000  1.000
     eigenvectors (columns):
      -0.004  0.001 -0.001 -0.771 -0.637
      -0.992 -0.095  0.078  0.000  0.005
      -0.041 -0.340 -0.940  0.001  0.000
      -0.004  0.000  0.000  0.637 -0.771
      -0.116  0.936 -0.333  0.001  0.001
     occupation matrix ns (before diag.):
       1.000 -0.000 -0.000  0.000 -0.000
      -0.000  1.000 -0.000 -0.000 -0.000
      -0.000 -0.000  1.000  0.000  0.000
       0.000 -0.000  0.000  1.000 -0.000
      -0.000 -0.000  0.000 -0.000  1.000
     SPIN  2
     eigenvalues:
       0.267  0.267  0.268  0.296  0.297
     eigenvectors (columns):
      -0.000 -0.009  0.001 -0.772  0.635
       0.246  0.956 -0.160 -0.005  0.007
      -0.723  0.071 -0.687  0.001  0.003
       0.003 -0.003  0.001  0.635  0.772
      -0.646  0.285  0.708  0.000  0.003
     occupation matrix ns (before diag.):
       0.296  0.000  0.000  0.000  0.000
       0.000  0.267  0.000  0.000 -0.000
       0.000  0.000  0.268  0.000 -0.001
       0.000  0.000  0.000  0.297  0.000
       0.000 -0.000 -0.001  0.000  0.268

     Number of occupied Hubbard levels =    6.3943

     HUBBARD ENERGY =    0.0000  (Ry)

     total cpu time spent up to now is       42.6 secs

     total energy              =    -249.88943233 Ry
     estimated scf accuracy    <       0.00000094 Ry

     total magnetization       =     4.00 Bohr mag/cell
     absolute magnetization    =     4.01 Bohr mag/cell

     iteration # 13     ecut=    60.00 Ry     beta= 0.70
     Davidson diagonalization with overlap

---- Real-time Memory Report at c_bands before calling an iterative solver
           170 MiB given to the printing process from OS
             0 MiB allocation reported by mallinfo(arena+hblkhd)
           197 MiB available memory on the node where the printing process lives
------------------
     ethr =  5.86E-09,  avg # of iterations =  2.0

     =================== HUBBARD OCCUPATIONS ===================
     ------------------------ ATOM    1 ------------------------
     Tr[ns(  1)] (up, down, total) =   4.99871  1.39480  6.39352
     Atomic magnetic moment for atom   1 =   3.60391
     SPIN  1
     eigenvalues:
       1.000  1.000  1.000  1.000  1.000
     eigenvectors (columns):
       0.001 -0.004  0.000 -0.393 -0.920
       0.376 -0.899  0.226  0.005  0.002
       0.588  0.043 -0.808  0.001  0.000
       0.001 -0.003 -0.000 -0.920  0.393
      -0.716 -0.436 -0.545  0.001  0.000
     occupation matrix ns (before diag.):
       1.000 -0.000 -0.000 -0.000 -0.000
      -0.000  1.000 -0.000 -0.000 -0.000
      -0.000 -0.000  1.000 -0.000  0.000
      -0.000 -0.000 -0.000  1.000 -0.000
      -0.000 -0.000  0.000 -0.000  1.000
     SPIN  2
     eigenvalues:
       0.264  0.265  0.265  0.300  0.301
     eigenvectors (columns):
      -0.006  0.016  0.003 -0.369  0.929
      -0.109 -0.990  0.085  0.006  0.019
       0.724 -0.020  0.690  0.001  0.004
      -0.002  0.013  0.000  0.929  0.369
       0.682 -0.137 -0.719  0.000  0.009
     occupation matrix ns (before diag.):
       0.301  0.001  0.000  0.000  0.000
       0.001  0.265  0.000  0.000  0.000
       0.000  0.000  0.264  0.000 -0.001
       0.000  0.000  0.000  0.300  0.000
       0.000  0.000 -0.001  0.000  0.265

     Number of occupied Hubbard levels =    6.3935

     HUBBARD ENERGY =    0.0000  (Ry)

     total cpu time spent up to now is       46.9 secs

     total energy              =    -249.88943297 Ry
     estimated scf accuracy    <       0.00000129 Ry

     total magnetization       =     4.00 Bohr mag/cell
     absolute magnetization    =     4.01 Bohr mag/cell

     iteration # 14     ecut=    60.00 Ry     beta= 0.70
     Davidson diagonalization with overlap

---- Real-time Memory Report at c_bands before calling an iterative solver
           170 MiB given to the printing process from OS
             0 MiB allocation reported by mallinfo(arena+hblkhd)
           164 MiB available memory on the node where the printing process lives
------------------
     ethr =  5.86E-09,  avg # of iterations =  1.5

     =================== HUBBARD OCCUPATIONS ===================
     ------------------------ ATOM    1 ------------------------
     Tr[ns(  1)] (up, down, total) =   4.99872  1.39590  6.39463
     Atomic magnetic moment for atom   1 =   3.60282
     SPIN  1
     eigenvalues:
       1.000  1.000  1.000  1.000  1.000
     eigenvectors (columns):
       0.002  0.005  0.002  0.964 -0.267
       0.060  0.993 -0.104 -0.006 -0.002
      -0.683  0.117  0.721 -0.001 -0.000
       0.001  0.004  0.001  0.267  0.964
       0.728  0.027  0.685 -0.003 -0.000
     occupation matrix ns (before diag.):
       1.000 -0.000 -0.000 -0.000 -0.000
      -0.000  1.000 -0.000 -0.000 -0.000
      -0.000 -0.000  1.000 -0.000  0.000
      -0.000 -0.000 -0.000  1.000 -0.000
      -0.000 -0.000  0.000 -0.000  1.000
     SPIN  2
     eigenvalues:
       0.264  0.265  0.266  0.300  0.301
     eigenvectors (columns):
      -0.003 -0.018  0.007 -0.902  0.432
       0.278  0.912 -0.302 -0.010  0.022
      -0.783  0.033 -0.621 -0.001  0.006
       0.002 -0.016  0.004  0.432  0.902
      -0.556  0.409  0.724  0.001  0.004
     occupation matrix ns (before diag.):
       0.300  0.001  0.000  0.000  0.000
       0.001  0.265  0.000  0.001  0.000
       0.000  0.000  0.265  0.000 -0.001
       0.000  0.001  0.000  0.301  0.000
       0.000  0.000 -0.001  0.000  0.265

     Number of occupied Hubbard levels =    6.3946

     HUBBARD ENERGY =    0.0000  (Ry)

     total cpu time spent up to now is       51.3 secs

     total energy              =    -249.88943309 Ry
     estimated scf accuracy    <       0.00000009 Ry

     total magnetization       =     4.00 Bohr mag/cell
     absolute magnetization    =     4.01 Bohr mag/cell

     iteration # 15     ecut=    60.00 Ry     beta= 0.70
     Davidson diagonalization with overlap

---- Real-time Memory Report at c_bands before calling an iterative solver
           170 MiB given to the printing process from OS
             0 MiB allocation reported by mallinfo(arena+hblkhd)
           160 MiB available memory on the node where the printing process lives
------------------
     ethr =  5.48E-10,  avg # of iterations =  1.0

     =================== HUBBARD OCCUPATIONS ===================
     ------------------------ ATOM    1 ------------------------
     Tr[ns(  1)] (up, down, total) =   4.99872  1.39588  6.39460
     Atomic magnetic moment for atom   1 =   3.60284
     SPIN  1
     eigenvalues:
       1.000  1.000  1.000  1.000  1.000
     eigenvectors (columns):
       0.000  0.006 -0.001 -0.763 -0.647
       0.216  0.963  0.159  0.008  0.000
       0.658 -0.023 -0.753  0.002 -0.000
       0.001  0.005 -0.001 -0.647  0.763
      -0.722  0.267 -0.639  0.003  0.000
     occupation matrix ns (before diag.):
       1.000 -0.000 -0.000 -0.000 -0.000
      -0.000  1.000 -0.000 -0.000 -0.000
      -0.000 -0.000  1.000 -0.000  0.000
      -0.000 -0.000 -0.000  1.000 -0.000
      -0.000 -0.000  0.000 -0.000  1.000
     SPIN  2
     eigenvalues:
       0.264  0.265  0.266  0.300  0.301
     eigenvectors (columns):
      -0.003  0.023 -0.003 -0.728 -0.685
      -0.190 -0.956  0.222 -0.004 -0.028
       0.748  0.006  0.664  0.000 -0.006
      -0.003  0.018 -0.003  0.685 -0.728
       0.637 -0.292 -0.714 -0.001 -0.008
     occupation matrix ns (before diag.):
       0.301  0.001  0.000  0.000  0.000
       0.001  0.265  0.000  0.001  0.000
       0.000  0.000  0.265  0.000 -0.001
       0.000  0.001  0.000  0.301  0.000
       0.000  0.000 -0.001  0.000  0.265

     Number of occupied Hubbard levels =    6.3946

     HUBBARD ENERGY =    0.0000  (Ry)

     total cpu time spent up to now is       55.4 secs

     total energy              =    -249.88943307 Ry
     estimated scf accuracy    <       0.00000005 Ry

     total magnetization       =     4.00 Bohr mag/cell
     absolute magnetization    =     4.01 Bohr mag/cell

     iteration # 16     ecut=    60.00 Ry     beta= 0.70
     Davidson diagonalization with overlap

---- Real-time Memory Report at c_bands before calling an iterative solver
           170 MiB given to the printing process from OS
             0 MiB allocation reported by mallinfo(arena+hblkhd)
           162 MiB available memory on the node where the printing process lives
------------------
     ethr =  3.02E-10,  avg # of iterations =  1.0

     =================== HUBBARD OCCUPATIONS ===================
     ------------------------ ATOM    1 ------------------------
     Tr[ns(  1)] (up, down, total) =   4.99872  1.39591  6.39463
     Atomic magnetic moment for atom   1 =   3.60281
     SPIN  1
     eigenvalues:
       1.000  1.000  1.000  1.000  1.000
     eigenvectors (columns):
      -0.000 -0.004  0.001 -0.683 -0.731
      -0.284 -0.949 -0.139  0.000  0.005
      -0.613  0.068  0.787  0.000  0.001
      -0.001 -0.003  0.001  0.731 -0.683
       0.738 -0.309  0.601  0.000  0.002
     occupation matrix ns (before diag.):
       1.000 -0.000 -0.000  0.000 -0.000
      -0.000  1.000 -0.000 -0.000 -0.000
      -0.000 -0.000  1.000 -0.000  0.000
       0.000 -0.000 -0.000  1.000 -0.000
      -0.000 -0.000  0.000 -0.000  1.000
     SPIN  2
     eigenvalues:
       0.264  0.265  0.266  0.300  0.301
     eigenvectors (columns):
      -0.001  0.011 -0.001 -0.687 -0.726
      -0.211 -0.957  0.199 -0.001 -0.014
       0.711 -0.011  0.704  0.001 -0.003
      -0.002  0.009 -0.002  0.726 -0.687
       0.671 -0.290 -0.682 -0.000 -0.004
     occupation matrix ns (before diag.):
       0.300  0.000  0.000  0.000  0.000
       0.000  0.265  0.000  0.000  0.000
       0.000  0.000  0.265  0.000 -0.001
       0.000  0.000  0.000  0.300  0.000
       0.000  0.000 -0.001  0.000  0.265

     Number of occupied Hubbard levels =    6.3946

     HUBBARD ENERGY =    0.0000  (Ry)

     total cpu time spent up to now is       59.9 secs

     total energy              =    -249.88943307 Ry
     estimated scf accuracy    <       0.00000005 Ry

     total magnetization       =     4.00 Bohr mag/cell
     absolute magnetization    =     4.01 Bohr mag/cell

     iteration # 17     ecut=    60.00 Ry     beta= 0.70
     Davidson diagonalization with overlap

---- Real-time Memory Report at c_bands before calling an iterative solver
           170 MiB given to the printing process from OS
             0 MiB allocation reported by mallinfo(arena+hblkhd)
           155 MiB available memory on the node where the printing process lives
------------------
     ethr =  3.02E-10,  avg # of iterations =  1.5

     =================== HUBBARD OCCUPATIONS ===================
     ------------------------ ATOM    1 ------------------------
     Tr[ns(  1)] (up, down, total) =   4.99872  1.39595  6.39468
     Atomic magnetic moment for atom   1 =   3.60277
     SPIN  1
     eigenvalues:
       1.000  1.000  1.000  1.000  1.000
     eigenvectors (columns):
       0.000  0.003 -0.000 -0.752 -0.659
       0.259  0.950  0.173  0.004  0.000
       0.666 -0.045 -0.745  0.001 -0.000
       0.001  0.002 -0.000 -0.659  0.752
      -0.700  0.308 -0.644  0.001  0.000
     occupation matrix ns (before diag.):
       1.000 -0.000 -0.000 -0.000 -0.000
      -0.000  1.000 -0.000 -0.000 -0.000
      -0.000 -0.000  1.000 -0.000  0.000
      -0.000 -0.000 -0.000  1.000 -0.000
      -0.000 -0.000  0.000 -0.000  1.000
     SPIN  2
     eigenvalues:
       0.264  0.265  0.265  0.301  0.301
     eigenvectors (columns):
       0.002  0.011 -0.000 -0.798 -0.603
       0.167 -0.968  0.186 -0.003 -0.014
      -0.766 -0.009  0.643 -0.000 -0.002
       0.001  0.010 -0.001  0.603 -0.798
      -0.621 -0.250 -0.743 -0.002 -0.004
     occupation matrix ns (before diag.):
       0.301  0.000  0.000  0.000  0.000
       0.000  0.265  0.000  0.000  0.000
       0.000  0.000  0.265  0.000 -0.000
       0.000  0.000  0.000  0.301  0.000
       0.000  0.000 -0.000  0.000  0.265

     Number of occupied Hubbard levels =    6.3947

     HUBBARD ENERGY =    0.0000  (Ry)

     total cpu time spent up to now is       63.7 secs

     total energy              =    -249.88943307 Ry
     estimated scf accuracy    <       0.00000003 Ry

     total magnetization       =     4.00 Bohr mag/cell
     absolute magnetization    =     4.01 Bohr mag/cell

     iteration # 18     ecut=    60.00 Ry     beta= 0.70
     Davidson diagonalization with overlap

---- Real-time Memory Report at c_bands before calling an iterative solver
           170 MiB given to the printing process from OS
             0 MiB allocation reported by mallinfo(arena+hblkhd)
           194 MiB available memory on the node where the printing process lives
------------------
     ethr =  1.79E-10,  avg # of iterations =  1.3

     =================== HUBBARD OCCUPATIONS ===================
     ------------------------ ATOM    1 ------------------------
     Tr[ns(  1)] (up, down, total) =   4.99872  1.39584  6.39457
     Atomic magnetic moment for atom   1 =   3.60288
     SPIN  1
     eigenvalues:
       1.000  1.000  1.000  1.000  1.000
     eigenvectors (columns):
      -0.000  0.001 -0.000 -0.165  0.986
       0.055  0.991  0.121 -0.001 -0.001
       0.620  0.061 -0.782 -0.000 -0.000
       0.000  0.001 -0.000  0.986  0.165
      -0.782  0.118 -0.611 -0.000 -0.001
     occupation matrix ns (before diag.):
       1.000 -0.000 -0.000  0.000 -0.000
      -0.000  1.000 -0.000 -0.000 -0.000
      -0.000 -0.000  1.000 -0.000  0.000
       0.000 -0.000 -0.000  1.000 -0.000
      -0.000 -0.000  0.000 -0.000  1.000
     SPIN  2
     eigenvalues:
       0.264  0.265  0.265  0.301  0.301
     eigenvectors (columns):
       0.001  0.003 -0.001 -0.555 -0.832
      -0.273 -0.900  0.340  0.002 -0.005
       0.687  0.065  0.723  0.000 -0.000
       0.001  0.005 -0.002  0.832 -0.555
       0.673 -0.431 -0.601 -0.000 -0.000
     occupation matrix ns (before diag.):
       0.301  0.000 -0.000  0.000  0.000
       0.000  0.265  0.000  0.000  0.000
      -0.000  0.000  0.265  0.000 -0.000
       0.000  0.000  0.000  0.301  0.000
       0.000  0.000 -0.000  0.000  0.265

     Number of occupied Hubbard levels =    6.3946

     HUBBARD ENERGY =    0.0000  (Ry)

     total cpu time spent up to now is       67.5 secs

     total energy              =    -249.88943307 Ry
     estimated scf accuracy    <       0.00000001 Ry

     total magnetization       =     4.00 Bohr mag/cell
     absolute magnetization    =     4.01 Bohr mag/cell

     iteration # 19     ecut=    60.00 Ry     beta= 0.70
     Davidson diagonalization with overlap

---- Real-time Memory Report at c_bands before calling an iterative solver
           170 MiB given to the printing process from OS
             0 MiB allocation reported by mallinfo(arena+hblkhd)
           193 MiB available memory on the node where the printing process lives
------------------
     ethr =  7.14E-11,  avg # of iterations =  1.0

     =================== HUBBARD OCCUPATIONS ===================
     ------------------------ ATOM    1 ------------------------
     Tr[ns(  1)] (up, down, total) =   4.99872  1.39584  6.39456
     Atomic magnetic moment for atom   1 =   3.60289
     SPIN  1
     eigenvalues:
       1.000  1.000  1.000  1.000  1.000
     eigenvectors (columns):
       0.000 -0.000 -0.000 -0.961  0.278
      -0.747 -0.629 -0.215 -0.000 -0.001
      -0.566  0.432  0.702 -0.000  0.000
      -0.001 -0.001 -0.000  0.278  0.961
       0.349 -0.646  0.679  0.000  0.000
     occupation matrix ns (before diag.):
       1.000 -0.000  0.000  0.000 -0.000
      -0.000  1.000 -0.000 -0.000 -0.000
       0.000 -0.000  1.000  0.000  0.000
       0.000 -0.000  0.000  1.000  0.000
      -0.000 -0.000  0.000  0.000  1.000
     SPIN  2
     eigenvalues:
       0.265  0.265  0.265  0.301  0.301
     eigenvectors (columns):
       0.000  0.001 -0.001  0.972 -0.233
       0.076  0.996  0.036 -0.002 -0.002
      -0.787  0.082 -0.611 -0.001  0.001
      -0.001 -0.002  0.000 -0.233 -0.972
      -0.612  0.019  0.791  0.001  0.001
     occupation matrix ns (before diag.):
       0.301 -0.000 -0.000  0.000  0.000
      -0.000  0.265 -0.000  0.000  0.000
      -0.000 -0.000  0.265 -0.000 -0.000
       0.000  0.000 -0.000  0.301 -0.000
       0.000  0.000 -0.000 -0.000  0.265

     Number of occupied Hubbard levels =    6.3946

     HUBBARD ENERGY =    0.0000  (Ry)

     total cpu time spent up to now is       71.4 secs

     total energy              =    -249.88943307 Ry
     estimated scf accuracy    <          6.4E-09 Ry

     total magnetization       =     4.00 Bohr mag/cell
     absolute magnetization    =     4.01 Bohr mag/cell

     iteration # 20     ecut=    60.00 Ry     beta= 0.70
     Davidson diagonalization with overlap

---- Real-time Memory Report at c_bands before calling an iterative solver
           170 MiB given to the printing process from OS
             0 MiB allocation reported by mallinfo(arena+hblkhd)
           189 MiB available memory on the node where the printing process lives
------------------
     ethr =  4.00E-11,  avg # of iterations =  1.0

     =================== HUBBARD OCCUPATIONS ===================
     ------------------------ ATOM    1 ------------------------
     Tr[ns(  1)] (up, down, total) =   4.99872  1.39583  6.39455
     Atomic magnetic moment for atom   1 =   3.60289
     SPIN  1
     eigenvalues:
       1.000  1.000  1.000  1.000  1.000
     eigenvectors (columns):
      -0.000  0.000 -0.000  0.014 -1.000
      -0.040 -0.945  0.323 -0.001 -0.000
       0.658 -0.268 -0.704  0.000 -0.000
       0.000 -0.001  0.001  1.000  0.014
      -0.752 -0.184 -0.633  0.000  0.000
     occupation matrix ns (before diag.):
       1.000  0.000  0.000 -0.000 -0.000
       0.000  1.000 -0.000 -0.000 -0.000
       0.000 -0.000  1.000  0.000  0.000
      -0.000 -0.000  0.000  1.000  0.000
      -0.000 -0.000  0.000  0.000  1.000
     SPIN  2
     eigenvalues:
       0.265  0.265  0.265  0.301  0.301
     eigenvectors (columns):
      -0.001 -0.002 -0.002  0.455 -0.890
       0.188 -0.936 -0.297  0.001  0.003
      -0.683  0.092 -0.725 -0.001  0.001
      -0.002  0.002  0.001  0.890  0.455
      -0.706 -0.339  0.622 -0.001 -0.001
     occupation matrix ns (before diag.):
       0.301 -0.000 -0.000 -0.000  0.000
      -0.000  0.265  0.000  0.000 -0.000
      -0.000  0.000  0.265 -0.000 -0.000
      -0.000  0.000 -0.000  0.301 -0.000
       0.000 -0.000 -0.000 -0.000  0.265

     Number of occupied Hubbard levels =    6.3946

     HUBBARD ENERGY =    0.0000  (Ry)

     total cpu time spent up to now is       75.4 secs

     total energy              =    -249.88943307 Ry
     estimated scf accuracy    <          2.2E-09 Ry

     total magnetization       =     4.00 Bohr mag/cell
     absolute magnetization    =     4.01 Bohr mag/cell

     iteration # 21     ecut=    60.00 Ry     beta= 0.70
     Davidson diagonalization with overlap

---- Real-time Memory Report at c_bands before calling an iterative solver
           170 MiB given to the printing process from OS
             0 MiB allocation reported by mallinfo(arena+hblkhd)
           188 MiB available memory on the node where the printing process lives
------------------
     ethr =  1.36E-11,  avg # of iterations =  1.3

     =================== HUBBARD OCCUPATIONS ===================
     ------------------------ ATOM    1 ------------------------
     Tr[ns(  1)] (up, down, total) =   4.99872  1.39584  6.39456
     Atomic magnetic moment for atom   1 =   3.60289
     SPIN  1
     eigenvalues:
       1.000  1.000  1.000  1.000  1.000
     eigenvectors (columns):
       0.000 -0.000  0.000  0.752 -0.660
      -0.167  0.974  0.155  0.001  0.000
      -0.690 -0.003 -0.724  0.000 -0.000
      -0.000  0.001  0.001 -0.660 -0.752
       0.704  0.228 -0.672 -0.000 -0.000
     occupation matrix ns (before diag.):
       1.000  0.000  0.000  0.000 -0.000
       0.000  1.000 -0.000 -0.000 -0.000
       0.000 -0.000  1.000  0.000  0.000
       0.000 -0.000  0.000  1.000  0.000
      -0.000 -0.000  0.000  0.000  1.000
     SPIN  2
     eigenvalues:
       0.265  0.265  0.265  0.301  0.301
     eigenvectors (columns):
      -0.000 -0.002  0.002 -0.913  0.408
      -0.390 -0.915  0.108  0.003  0.003
       0.665 -0.198  0.720  0.001 -0.001
       0.003  0.003 -0.001  0.408  0.913
       0.637 -0.352 -0.686 -0.001 -0.001
     occupation matrix ns (before diag.):
       0.301 -0.000 -0.000  0.000  0.000
      -0.000  0.265  0.000  0.000  0.000
      -0.000  0.000  0.265 -0.000 -0.000
       0.000  0.000 -0.000  0.301 -0.000
       0.000  0.000 -0.000 -0.000  0.265

     Number of occupied Hubbard levels =    6.3946

     HUBBARD ENERGY =    0.0000  (Ry)

     total cpu time spent up to now is       79.3 secs

     total energy              =    -249.88943307 Ry
     estimated scf accuracy    <          1.5E-09 Ry

     total magnetization       =     4.00 Bohr mag/cell
     absolute magnetization    =     4.01 Bohr mag/cell

     iteration # 22     ecut=    60.00 Ry     beta= 0.70
     Davidson diagonalization with overlap

---- Real-time Memory Report at c_bands before calling an iterative solver
           170 MiB given to the printing process from OS
             0 MiB allocation reported by mallinfo(arena+hblkhd)
           185 MiB available memory on the node where the printing process lives
------------------
     ethr =  9.61E-12,  avg # of iterations =  1.0

     =================== HUBBARD OCCUPATIONS ===================
     ------------------------ ATOM    1 ------------------------
     Tr[ns(  1)] (up, down, total) =   4.99872  1.39583  6.39456
     Atomic magnetic moment for atom   1 =   3.60289
     SPIN  1
     eigenvalues:
       1.000  1.000  1.000  1.000  1.000
     eigenvectors (columns):
       0.001  0.001 -0.000  0.790 -0.613
      -0.150 -0.971 -0.187  0.001  0.000
      -0.709 -0.026  0.704  0.000 -0.000
      -0.000 -0.001 -0.001 -0.613 -0.790
       0.689 -0.238  0.685 -0.000 -0.000
     occupation matrix ns (before diag.):
       1.000  0.000  0.000  0.000 -0.000
       0.000  1.000 -0.000 -0.000 -0.000
       0.000 -0.000  1.000  0.000  0.000
       0.000 -0.000  0.000  1.000  0.000
      -0.000 -0.000  0.000  0.000  1.000
     SPIN  2
     eigenvalues:
       0.265  0.265  0.265  0.301  0.301
     eigenvectors (columns):
       0.000 -0.002 -0.002 -0.751  0.661
      -0.326 -0.937 -0.123 -0.001 -0.004
       0.680 -0.142 -0.719  0.002 -0.000
       0.003  0.003  0.001 -0.661 -0.751
       0.657 -0.318  0.684  0.001  0.002
     occupation matrix ns (before diag.):
       0.301 -0.000 -0.000 -0.000  0.000
      -0.000  0.265  0.000  0.000  0.000
      -0.000  0.000  0.265 -0.000 -0.000
      -0.000  0.000 -0.000  0.301 -0.000
       0.000  0.000 -0.000 -0.000  0.265

     Number of occupied Hubbard levels =    6.3946

     HUBBARD ENERGY =    0.0000  (Ry)

     total cpu time spent up to now is       82.9 secs

     total energy              =    -249.88943307 Ry
     estimated scf accuracy    <          1.1E-09 Ry

     total magnetization       =     4.00 Bohr mag/cell
     absolute magnetization    =     4.01 Bohr mag/cell

     iteration # 23     ecut=    60.00 Ry     beta= 0.70
     Davidson diagonalization with overlap

---- Real-time Memory Report at c_bands before calling an iterative solver
           170 MiB given to the printing process from OS
             0 MiB allocation reported by mallinfo(arena+hblkhd)
           185 MiB available memory on the node where the printing process lives
------------------
     ethr =  7.07E-12,  avg # of iterations =  1.9

     =================== HUBBARD OCCUPATIONS ===================
     ------------------------ ATOM    1 ------------------------
     Tr[ns(  1)] (up, down, total) =   4.99872  1.39580  6.39452
     Atomic magnetic moment for atom   1 =   3.60293
     SPIN  1
     eigenvalues:
       1.000  1.000  1.000  1.000  1.000
     eigenvectors (columns):
      -0.000 -0.001 -0.000  0.597 -0.802
       0.173  0.886  0.431  0.001 -0.000
       0.723  0.183 -0.666  0.000 -0.000
       0.000  0.000  0.001 -0.802 -0.597
      -0.669  0.427 -0.609 -0.000 -0.000
     occupation matrix ns (before diag.):
       1.000  0.000  0.000  0.000 -0.000
       0.000  1.000 -0.000 -0.000  0.000
       0.000 -0.000  1.000  0.000  0.000
       0.000 -0.000  0.000  1.000  0.000
      -0.000  0.000  0.000  0.000  1.000
     SPIN  2
     eigenvalues:
       0.265  0.265  0.265  0.301  0.301
     eigenvectors (columns):
       0.000 -0.002 -0.001  0.519 -0.855
      -0.247 -0.967 -0.067  0.001  0.003
       0.650 -0.114 -0.752 -0.001  0.001
       0.002  0.002  0.001  0.855  0.519
       0.719 -0.229  0.656 -0.001 -0.001
     occupation matrix ns (before diag.):
       0.301 -0.000 -0.000 -0.000  0.000
      -0.000  0.265  0.000  0.000  0.000
      -0.000  0.000  0.265 -0.000 -0.000
      -0.000  0.000 -0.000  0.301 -0.000
       0.000  0.000 -0.000 -0.000  0.265

     Number of occupied Hubbard levels =    6.3945

     HUBBARD ENERGY =    0.0000  (Ry)

     total cpu time spent up to now is       86.9 secs

     total energy              =    -249.88943307 Ry
     estimated scf accuracy    <          1.1E-09 Ry

     total magnetization       =     4.00 Bohr mag/cell
     absolute magnetization    =     4.01 Bohr mag/cell

     iteration # 24     ecut=    60.00 Ry     beta= 0.70
     Davidson diagonalization with overlap

---- Real-time Memory Report at c_bands before calling an iterative solver
           170 MiB given to the printing process from OS
             0 MiB allocation reported by mallinfo(arena+hblkhd)
           185 MiB available memory on the node where the printing process lives
------------------
     ethr =  7.07E-12,  avg # of iterations =  1.0

     =================== HUBBARD OCCUPATIONS ===================
     ------------------------ ATOM    1 ------------------------
     Tr[ns(  1)] (up, down, total) =   4.99872  1.39580  6.39453
     Atomic magnetic moment for atom   1 =   3.60292
     SPIN  1
     eigenvalues:
       1.000  1.000  1.000  1.000  1.000
     eigenvectors (columns):
      -0.000  0.001 -0.000  0.704 -0.710
       0.140 -0.898  0.418  0.001  0.000
       0.733 -0.190 -0.653  0.000 -0.000
       0.000 -0.000  0.001 -0.710 -0.704
      -0.666 -0.398 -0.631 -0.000 -0.000
     occupation matrix ns (before diag.):
       1.000  0.000  0.000  0.000 -0.000
       0.000  1.000 -0.000 -0.000 -0.000
       0.000 -0.000  1.000  0.000  0.000
       0.000 -0.000  0.000  1.000  0.000
      -0.000 -0.000  0.000  0.000  1.000
     SPIN  2
     eigenvalues:
       0.265  0.265  0.265  0.301  0.301
     eigenvectors (columns):
      -0.000 -0.002 -0.001 -0.587  0.810
       0.270 -0.957 -0.107 -0.000 -0.003
      -0.659 -0.103 -0.745  0.001 -0.001
      -0.002  0.002  0.001 -0.810 -0.587
      -0.702 -0.271  0.658  0.001  0.001
     occupation matrix ns (before diag.):
       0.301 -0.000 -0.000 -0.000  0.000
      -0.000  0.265  0.000  0.000  0.000
      -0.000  0.000  0.265 -0.000 -0.000
      -0.000  0.000 -0.000  0.301 -0.000
       0.000  0.000 -0.000 -0.000  0.265

     Number of occupied Hubbard levels =    6.3945

     HUBBARD ENERGY =    0.0000  (Ry)

     total cpu time spent up to now is       90.4 secs

     total energy              =    -249.88943307 Ry
     estimated scf accuracy    <          9.3E-10 Ry

     total magnetization       =     4.00 Bohr mag/cell
     absolute magnetization    =     4.01 Bohr mag/cell

     iteration # 25     ecut=    60.00 Ry     beta= 0.70
     Davidson diagonalization with overlap

---- Real-time Memory Report at c_bands before calling an iterative solver
           170 MiB given to the printing process from OS
             0 MiB allocation reported by mallinfo(arena+hblkhd)
           177 MiB available memory on the node where the printing process lives
------------------
     ethr =  5.81E-12,  avg # of iterations =  1.0

     =================== HUBBARD OCCUPATIONS ===================
     ------------------------ ATOM    1 ------------------------
     Tr[ns(  1)] (up, down, total) =   4.99872  1.39580  6.39453
     Atomic magnetic moment for atom   1 =   3.60292
     SPIN  1
     eigenvalues:
       1.000  1.000  1.000  1.000  1.000
     eigenvectors (columns):
      -0.000 -0.001  0.000 -0.899  0.438
      -0.110  0.931 -0.348 -0.001 -0.000
       0.805  0.289  0.518 -0.000  0.000
      -0.000  0.000 -0.001  0.438  0.899
      -0.583  0.223  0.781  0.000  0.000
     occupation matrix ns (before diag.):
       1.000  0.000  0.000  0.000 -0.000
       0.000  1.000 -0.000 -0.000 -0.000
       0.000 -0.000  1.000  0.000  0.000
       0.000 -0.000  0.000  1.000  0.000
      -0.000 -0.000  0.000  0.000  1.000
     SPIN  2
     eigenvalues:
       0.265  0.265  0.265  0.301  0.301
     eigenvectors (columns):
       0.001  0.002 -0.002 -0.913  0.408
       0.761  0.598 -0.252  0.001 -0.003
      -0.589  0.474 -0.655  0.002 -0.000
      -0.002 -0.000  0.001 -0.408 -0.913
      -0.272  0.647  0.712  0.001  0.001
     occupation matrix ns (before diag.):
       0.301 -0.000 -0.000 -0.000 -0.000
      -0.000  0.265  0.000  0.000 -0.000
      -0.000  0.000  0.265 -0.000 -0.000
      -0.000  0.000 -0.000  0.301 -0.000
      -0.000 -0.000 -0.000 -0.000  0.265

     Number of occupied Hubbard levels =    6.3945

     HUBBARD ENERGY =    0.0000  (Ry)

     total cpu time spent up to now is       94.0 secs

     total energy              =    -249.88943307 Ry
     estimated scf accuracy    <          1.1E-09 Ry

     total magnetization       =     4.00 Bohr mag/cell
     absolute magnetization    =     4.01 Bohr mag/cell

     iteration # 26     ecut=    60.00 Ry     beta= 0.70
     Davidson diagonalization with overlap

---- Real-time Memory Report at c_bands before calling an iterative solver
           170 MiB given to the printing process from OS
             0 MiB allocation reported by mallinfo(arena+hblkhd)
           175 MiB available memory on the node where the printing process lives
------------------
     ethr =  5.81E-12,  avg # of iterations =  1.4

     =================== HUBBARD OCCUPATIONS ===================
     ------------------------ ATOM    1 ------------------------
     Tr[ns(  1)] (up, down, total) =   4.99872  1.39581  6.39454
     Atomic magnetic moment for atom   1 =   3.60291
     SPIN  1
     eigenvalues:
       1.000  1.000  1.000  1.000  1.000
     eigenvectors (columns):
      -0.000  0.000 -0.000  0.656 -0.755
       0.669 -0.683 -0.294  0.001  0.000
      -0.129 -0.496  0.859 -0.000 -0.000
       0.000 -0.000 -0.000 -0.755 -0.656
       0.732  0.536  0.420 -0.000 -0.000
     occupation matrix ns (before diag.):
       1.000  0.000  0.000  0.000 -0.000
       0.000  1.000 -0.000 -0.000 -0.000
       0.000 -0.000  1.000  0.000  0.000
       0.000 -0.000  0.000  1.000  0.000
      -0.000 -0.000  0.000  0.000  1.000
     SPIN  2
     eigenvalues:
       0.265  0.265  0.265  0.301  0.301
     eigenvectors (columns):
      -0.001 -0.001  0.001  0.404 -0.915
      -0.221 -0.960  0.170 -0.002  0.001
      -0.534  0.265  0.803 -0.000  0.001
      -0.001  0.001 -0.001 -0.915 -0.404
      -0.816  0.087 -0.571  0.001  0.000
     occupation matrix ns (before diag.):
       0.301 -0.000 -0.000  0.000  0.000
      -0.000  0.265  0.000  0.000 -0.000
      -0.000  0.000  0.265 -0.000 -0.000
       0.000  0.000 -0.000  0.301 -0.000
       0.000 -0.000 -0.000 -0.000  0.265

     Number of occupied Hubbard levels =    6.3945

     HUBBARD ENERGY =    0.0000  (Ry)

     total cpu time spent up to now is       97.9 secs

     total energy              =    -249.88943307 Ry
     estimated scf accuracy    <          7.4E-10 Ry

     total magnetization       =     4.00 Bohr mag/cell
     absolute magnetization    =     4.01 Bohr mag/cell

     iteration # 27     ecut=    60.00 Ry     beta= 0.70
     Davidson diagonalization with overlap

---- Real-time Memory Report at c_bands before calling an iterative solver
           170 MiB given to the printing process from OS
             0 MiB allocation reported by mallinfo(arena+hblkhd)
           172 MiB available memory on the node where the printing process lives
------------------
     ethr =  4.65E-12,  avg # of iterations =  1.0

     =================== HUBBARD OCCUPATIONS ===================
     ------------------------ ATOM    1 ------------------------
     Tr[ns(  1)] (up, down, total) =   4.99872  1.39582  6.39454
     Atomic magnetic moment for atom   1 =   3.60290
     SPIN  1
     eigenvalues:
       1.000  1.000  1.000  1.000  1.000
     eigenvectors (columns):
       0.000 -0.000 -0.000  0.737 -0.676
      -0.373  0.894  0.247  0.000 -0.000
       0.723  0.113  0.682  0.000 -0.000
      -0.000  0.000  0.000 -0.676 -0.737
       0.582  0.433 -0.688 -0.000 -0.000
     occupation matrix ns (before diag.):
       1.000  0.000  0.000  0.000 -0.000
       0.000  1.000  0.000 -0.000  0.000
       0.000  0.000  1.000  0.000 -0.000
       0.000 -0.000  0.000  1.000  0.000
      -0.000  0.000 -0.000  0.000  1.000
     SPIN  2
     eigenvalues:
       0.265  0.265  0.265  0.301  0.301
     eigenvectors (columns):
       0.001 -0.000  0.001  0.793 -0.609
       0.971 -0.093  0.221 -0.001  0.001
      -0.232 -0.597  0.768 -0.001 -0.000
      -0.000  0.000  0.001  0.609  0.793
      -0.060  0.796  0.602 -0.001 -0.000
     occupation matrix ns (before diag.):
       0.301 -0.000 -0.000 -0.000 -0.000
      -0.000  0.265  0.000 -0.000  0.000
      -0.000  0.000  0.265 -0.000  0.000
      -0.000 -0.000 -0.000  0.301 -0.000
      -0.000  0.000  0.000 -0.000  0.265

     Number of occupied Hubbard levels =    6.3945

     HUBBARD ENERGY =    0.0000  (Ry)

     total cpu time spent up to now is      101.5 secs

     total energy              =    -249.88943307 Ry
     estimated scf accuracy    <          3.0E-10 Ry

     total magnetization       =     4.00 Bohr mag/cell
     absolute magnetization    =     4.01 Bohr mag/cell

     iteration # 28     ecut=    60.00 Ry     beta= 0.70
     Davidson diagonalization with overlap

---- Real-time Memory Report at c_bands before calling an iterative solver
           170 MiB given to the printing process from OS
             0 MiB allocation reported by mallinfo(arena+hblkhd)
           170 MiB available memory on the node where the printing process lives
------------------
     ethr =  1.85E-12,  avg # of iterations =  1.1

     =================== HUBBARD OCCUPATIONS ===================
     ------------------------ ATOM    1 ------------------------
     Tr[ns(  1)] (up, down, total) =   4.99872  1.39583  6.39456
     Atomic magnetic moment for atom   1 =   3.60289
     SPIN  1
     eigenvalues:
       1.000  1.000  1.000  1.000  1.000
     eigenvectors (columns):
       0.000 -0.000 -0.000 -0.776  0.631
      -0.479  0.424  0.768 -0.000  0.000
      -0.787 -0.595 -0.162  0.000  0.000
       0.000  0.000  0.000  0.631  0.776
      -0.389  0.682 -0.619  0.000  0.000
     occupation matrix ns (before diag.):
       1.000  0.000  0.000  0.000  0.000
       0.000  1.000 -0.000 -0.000 -0.000
       0.000 -0.000  1.000  0.000 -0.000
       0.000 -0.000  0.000  1.000  0.000
       0.000 -0.000 -0.000  0.000  1.000
     SPIN  2
     eigenvalues:
       0.265  0.265  0.265  0.301  0.301
     eigenvectors (columns):
       0.001  0.000  0.001 -0.728  0.686
       0.555 -0.328  0.765  0.000 -0.001
       0.634  0.762 -0.132  0.000 -0.000
       0.000 -0.000 -0.001 -0.686 -0.728
       0.539 -0.558 -0.631  0.000  0.001
     occupation matrix ns (before diag.):
       0.301 -0.000 -0.000 -0.000  0.000
      -0.000  0.265 -0.000  0.000 -0.000
      -0.000 -0.000  0.265 -0.000 -0.000
      -0.000  0.000 -0.000  0.301 -0.000
       0.000 -0.000 -0.000 -0.000  0.265

     Number of occupied Hubbard levels =    6.3946

     HUBBARD ENERGY =    0.0000  (Ry)

     total cpu time spent up to now is      105.1 secs

     total energy              =    -249.88943307 Ry
     estimated scf accuracy    <          5.0E-10 Ry

     total magnetization       =     4.00 Bohr mag/cell
     absolute magnetization    =     4.01 Bohr mag/cell

     iteration # 29     ecut=    60.00 Ry     beta= 0.70
     Davidson diagonalization with overlap

---- Real-time Memory Report at c_bands before calling an iterative solver
           170 MiB given to the printing process from OS
             0 MiB allocation reported by mallinfo(arena+hblkhd)
           171 MiB available memory on the node where the printing process lives
------------------
     ethr =  1.85E-12,  avg # of iterations =  1.0

     =================== HUBBARD OCCUPATIONS ===================
     ------------------------ ATOM    1 ------------------------
     Tr[ns(  1)] (up, down, total) =   4.99872  1.39583  6.39455
     Atomic magnetic moment for atom   1 =   3.60289
     SPIN  1
     eigenvalues:
       1.000  1.000  1.000  1.000  1.000
     eigenvectors (columns):
      -0.000 -0.000 -0.000  0.578 -0.816
       0.239  0.856  0.458  0.000 -0.000
      -0.713 -0.166  0.681 -0.000 -0.000
       0.000 -0.000  0.000 -0.816 -0.578
      -0.659  0.489 -0.571 -0.000 -0.000
     occupation matrix ns (before diag.):
       1.000  0.000  0.000  0.000 -0.000
       0.000  1.000  0.000 -0.000 -0.000
       0.000  0.000  1.000  0.000 -0.000
       0.000 -0.000  0.000  1.000  0.000
      -0.000 -0.000 -0.000  0.000  1.000
     SPIN  2
     eigenvalues:
       0.265  0.265  0.265  0.301  0.301
     eigenvectors (columns):
      -0.000 -0.001 -0.000 -0.360 -0.933
      -0.352 -0.935 -0.039  0.000  0.001
       0.528 -0.164 -0.833  0.000  0.000
      -0.000  0.000 -0.000 -0.933  0.360
      -0.773  0.314 -0.552  0.000  0.000
     occupation matrix ns (before diag.):
       0.301 -0.000 -0.000 -0.000 -0.000
      -0.000  0.265  0.000  0.000 -0.000
      -0.000  0.000  0.265 -0.000  0.000
      -0.000  0.000 -0.000  0.301 -0.000
      -0.000 -0.000  0.000 -0.000  0.265

     Number of occupied Hubbard levels =    6.3946

     HUBBARD ENERGY =    0.0000  (Ry)

     total cpu time spent up to now is      108.8 secs

     total energy              =    -249.88943307 Ry
     estimated scf accuracy    <          1.8E-10 Ry

     total magnetization       =     4.00 Bohr mag/cell
     absolute magnetization    =     4.01 Bohr mag/cell

     iteration # 30     ecut=    60.00 Ry     beta= 0.70
     Davidson diagonalization with overlap

---- Real-time Memory Report at c_bands before calling an iterative solver
           170 MiB given to the printing process from OS
             0 MiB allocation reported by mallinfo(arena+hblkhd)
           170 MiB available memory on the node where the printing process lives
------------------
     ethr =  1.12E-12,  avg # of iterations =  1.1

     =================== HUBBARD OCCUPATIONS ===================
     ------------------------ ATOM    1 ------------------------
     Tr[ns(  1)] (up, down, total) =   4.99872  1.39582  6.39455
     Atomic magnetic moment for atom   1 =   3.60290
     SPIN  1
     eigenvalues:
       1.000  1.000  1.000  1.000  1.000
     eigenvectors (columns):
       0.000 -0.000 -0.000 -0.892 -0.453
       0.218  0.976 -0.011 -0.000 -0.000
      -0.771  0.179  0.612 -0.000 -0.000
       0.000 -0.000  0.000  0.453 -0.892
      -0.599  0.125 -0.791 -0.000 -0.000
     occupation matrix ns (before diag.):
       1.000  0.000  0.000  0.000  0.000
       0.000  1.000  0.000  0.000  0.000
       0.000  0.000  1.000  0.000 -0.000
       0.000  0.000  0.000  1.000  0.000
       0.000  0.000 -0.000  0.000  1.000
     SPIN  2
     eigenvalues:
       0.265  0.265  0.265  0.301  0.301
     eigenvectors (columns):
       0.001 -0.000  0.000 -1.000 -0.002
       0.830 -0.539 -0.143  0.001  0.000
       0.474  0.546  0.691  0.000  0.000
       0.000 -0.000  0.000  0.002 -1.000
      -0.294 -0.641  0.709  0.000  0.000
     occupation matrix ns (before diag.):
       0.301 -0.000 -0.000  0.000 -0.000
      -0.000  0.265 -0.000 -0.000 -0.000
      -0.000 -0.000  0.265 -0.000  0.000
       0.000 -0.000 -0.000  0.301 -0.000
      -0.000 -0.000  0.000 -0.000  0.265

     Number of occupied Hubbard levels =    6.3945

     HUBBARD ENERGY =    0.0000  (Ry)

     total cpu time spent up to now is      112.4 secs

     total energy              =    -249.88943307 Ry
     estimated scf accuracy    <          1.2E-10 Ry

     total magnetization       =     4.00 Bohr mag/cell
     absolute magnetization    =     4.01 Bohr mag/cell

     iteration # 31     ecut=    60.00 Ry     beta= 0.70
     Davidson diagonalization with overlap

---- Real-time Memory Report at c_bands before calling an iterative solver
           170 MiB given to the printing process from OS
             0 MiB allocation reported by mallinfo(arena+hblkhd)
           170 MiB available memory on the node where the printing process lives
------------------
     ethr =  7.52E-13,  avg # of iterations =  1.5

     =================== HUBBARD OCCUPATIONS ===================
     ------------------------ ATOM    1 ------------------------
     Tr[ns(  1)] (up, down, total) =   4.99872  1.39582  6.39454
     Atomic magnetic moment for atom   1 =   3.60290
     SPIN  1
     eigenvalues:
       1.000  1.000  1.000  1.000  1.000
     eigenvectors (columns):
       0.000 -0.000  0.000 -0.729  0.685
       0.198  0.975 -0.097 -0.000  0.000
      -0.756  0.089 -0.648 -0.000  0.000
       0.000 -0.000 -0.000  0.685  0.729
      -0.623  0.202  0.755  0.000  0.000
     occupation matrix ns (before diag.):
       1.000  0.000  0.000  0.000  0.000
       0.000  1.000  0.000  0.000  0.000
       0.000  0.000  1.000  0.000 -0.000
       0.000  0.000  0.000  1.000  0.000
       0.000  0.000 -0.000  0.000  1.000
     SPIN  2
     eigenvalues:
       0.265  0.265  0.265  0.301  0.301
     eigenvectors (columns):
      -0.000 -0.001  0.000  0.834 -0.552
      -0.060 -0.989 -0.133 -0.001  0.000
      -0.683 -0.057  0.729 -0.000 -0.000
       0.000 -0.000  0.000  0.552  0.834
       0.728 -0.134  0.672 -0.000 -0.000
     occupation matrix ns (before diag.):
       0.301 -0.000 -0.000 -0.000 -0.000
      -0.000  0.265 -0.000 -0.000 -0.000
      -0.000 -0.000  0.265 -0.000  0.000
      -0.000 -0.000 -0.000  0.301 -0.000
      -0.000 -0.000  0.000 -0.000  0.265

     Number of occupied Hubbard levels =    6.3945

     HUBBARD ENERGY =    0.0000  (Ry)

     total cpu time spent up to now is      116.3 secs

     total energy              =    -249.88943307 Ry
     estimated scf accuracy    <          4.8E-11 Ry

     total magnetization       =     4.00 Bohr mag/cell
     absolute magnetization    =     4.01 Bohr mag/cell

     iteration # 32     ecut=    60.00 Ry     beta= 0.70
     Davidson diagonalization with overlap

---- Real-time Memory Report at c_bands before calling an iterative solver
           170 MiB given to the printing process from OS
             0 MiB allocation reported by mallinfo(arena+hblkhd)
           168 MiB available memory on the node where the printing process lives
------------------
     ethr =  3.02E-13,  avg # of iterations =  1.0

     =================== HUBBARD OCCUPATIONS ===================
     ------------------------ ATOM    1 ------------------------
     Tr[ns(  1)] (up, down, total) =   4.99872  1.39582  6.39454
[...]

   -90.3949 -56.8051 -56.8051 -56.8045  -4.4633  -4.4547  -4.4547  -4.4390
    -4.4388  -2.0869   1.2862   1.9607

     occupation numbers 
     1.0000   1.0000   1.0000   1.0000   1.0000   1.0000   1.0000   1.0000
     1.0000   1.0000   0.0000   0.0000

          k =-0.5774-0.0000-0.0000 (  5018 PWs)   bands (ev):

   -90.3949 -56.8051 -56.8051 -56.8045  -4.4633  -4.4547  -4.4547  -4.4390
    -4.4388  -2.0869   1.2862   1.9607

     occupation numbers 
     1.0000   1.0000   1.0000   1.0000   1.0000   1.0000   1.0000   1.0000
     1.0000   1.0000   0.0000   0.0000

          k = 0.0000-0.2887-0.2887 (  5007 PWs)   bands (ev):

   -90.3946 -56.8054 -56.8041 -56.8033  -4.5062  -4.4792  -4.4362  -4.4164
    -4.4160  -2.7239   0.9676   3.0059

     occupation numbers 
     1.0000   1.0000   1.0000   1.0000   1.0000   1.0000   1.0000   1.0000
     1.0000   1.0000   0.0000   0.0000

          k = 0.2887-0.0000-0.2887 (  5007 PWs)   bands (ev):

   -90.3946 -56.8054 -56.8041 -56.8033  -4.5062  -4.4792  -4.4362  -4.4164
    -4.4160  -2.7239   0.9676   3.0059

     occupation numbers 
     1.0000   1.0000   1.0000   1.0000   1.0000   1.0000   1.0000   1.0000
     1.0000   1.0000   0.0000   0.0000

          k =-0.2887-0.5774-0.2887 (  5006 PWs)   bands (ev):

   -90.3946 -56.8052 -56.8037 -56.8037  -4.4965  -4.4533  -4.4533  -4.4187
    -4.4187  -2.0825   0.8562   0.8562

     occupation numbers 
     1.0000   1.0000   1.0000   1.0000   1.0000   1.0000   1.0000   1.0000
     1.0000   1.0000   0.0000   0.0000

          k = 0.2887-0.2887-0.0000 (  5007 PWs)   bands (ev):

   -90.3946 -56.8054 -56.8041 -56.8033  -4.5062  -4.4792  -4.4362  -4.4164
    -4.4160  -2.7239   0.9676   3.0059

     occupation numbers 
     1.0000   1.0000   1.0000   1.0000   1.0000   1.0000   1.0000   1.0000
     1.0000   1.0000   0.0000   0.0000

          k = 0.5774-0.0000-0.0000 (  5018 PWs)   bands (ev):

   -90.3949 -56.8051 -56.8051 -56.8045  -4.4633  -4.4547  -4.4547  -4.4390
    -4.4388  -2.0869   1.2862   1.9607

     occupation numbers 
     1.0000   1.0000   1.0000   1.0000   1.0000   1.0000   1.0000   1.0000
     1.0000   1.0000   0.0000   0.0000

          k =-0.0000-0.5774-0.0000 (  5018 PWs)   bands (ev):

   -90.3949 -56.8051 -56.8051 -56.8045  -4.4633  -4.4547  -4.4547  -4.4390
    -4.4388  -2.0869   1.2862   1.9607

     occupation numbers 
     1.0000   1.0000   1.0000   1.0000   1.0000   1.0000   1.0000   1.0000
     1.0000   1.0000   0.0000   0.0000

          k =-0.2887-0.2887-0.5774 (  5006 PWs)   bands (ev):

   -90.3946 -56.8052 -56.8037 -56.8037  -4.4965  -4.4533  -4.4533  -4.4187
    -4.4187  -2.0825   0.8562   0.8562

     occupation numbers 
     1.0000   1.0000   1.0000   1.0000   1.0000   1.0000   1.0000   1.0000
     1.0000   1.0000   0.0000   0.0000

          k =-0.0000-0.0000-0.5774 (  5018 PWs)   bands (ev):

   -90.3949 -56.8051 -56.8051 -56.8045  -4.4633  -4.4547  -4.4547  -4.4390
    -4.4388  -2.0869   1.2862   1.9607

     occupation numbers 
     1.0000   1.0000   1.0000   1.0000   1.0000   1.0000   1.0000   1.0000
     1.0000   1.0000   0.0000   0.0000

          k =-0.5774-0.5774-0.5774 (  5006 PWs)   bands (ev):

   -90.3946 -56.8052 -56.8037 -56.8037  -4.4965  -4.4533  -4.4533  -4.4187
    -4.4187  -2.0825   0.8562   0.8562

     occupation numbers 
     1.0000   1.0000   1.0000   1.0000   1.0000   1.0000   1.0000   1.0000
     1.0000   1.0000   0.0000   0.0000

 ------ SPIN DOWN ----------


          k = 0.0000 0.0000 0.0000 (  5017 PWs)   bands (ev):

   -87.0157 -53.2864 -53.2864 -53.2864  -2.7484  -1.1986  -1.1986  -1.1986
    -1.1613  -1.1613   4.8494   4.8494

     occupation numbers 
     1.0000   1.0000   1.0000   1.0000   1.0000   0.3447   0.3447   0.3447
     0.2156   0.2156   0.0000   0.0000

          k = 0.2887 0.2887 0.0000 (  5007 PWs)   bands (ev):

   -87.0154 -53.2868 -53.2855 -53.2845  -1.9272  -1.2397  -1.1797  -1.1523
    -1.1383  -1.1108   1.5603   3.7646

     occupation numbers 
     1.0000   1.0000   1.0000   1.0000   1.0000   0.5111   0.2757   0.1891
     0.1524   0.0947   0.0000   0.0000

          k =-0.2887-0.2887 0.0000 (  5007 PWs)   bands (ev):

   -87.0154 -53.2868 -53.2855 -53.2845  -1.9272  -1.2397  -1.1797  -1.1523
    -1.1383  -1.1108   1.5603   3.7646

     occupation numbers 
     1.0000   1.0000   1.0000   1.0000   1.0000   0.5111   0.2757   0.1891
     0.1524   0.0947   0.0000   0.0000

          k = 0.2887 0.0000 0.2887 (  5007 PWs)   bands (ev):

   -87.0154 -53.2868 -53.2855 -53.2845  -1.9272  -1.2397  -1.1797  -1.1523
    -1.1383  -1.1108   1.5603   3.7646

     occupation numbers 
     1.0000   1.0000   1.0000   1.0000   1.0000   0.5111   0.2757   0.1891
     0.1524   0.0947   0.0000   0.0000

          k = 0.5774 0.2887 0.2887 (  5006 PWs)   bands (ev):

   -87.0153 -53.2866 -53.2849 -53.2849  -1.3314  -1.1933  -1.1933  -1.1352
    -1.1352  -0.9253   1.3435   1.3435

     occupation numbers 
     1.0000   1.0000   1.0000   1.0000   0.8367   0.3247   0.3247   0.1450
     0.1450   0.0006   0.0000   0.0000

          k =-0.0000-0.2887 0.2887 (  5007 PWs)   bands (ev):

   -87.0154 -53.2868 -53.2855 -53.2845  -1.9272  -1.2397  -1.1797  -1.1523
    -1.1383  -1.1108   1.5603   3.7646

     occupation numbers 
     1.0000   1.0000   1.0000   1.0000   1.0000   0.5111   0.2757   0.1891
     0.1524   0.0947   0.0000   0.0000

          k =-0.2887 0.0000-0.2887 (  5007 PWs)   bands (ev):

   -87.0154 -53.2868 -53.2855 -53.2845  -1.9272  -1.2397  -1.1797  -1.1523
    -1.1383  -1.1108   1.5603   3.7646

     occupation numbers 
     1.0000   1.0000   1.0000   1.0000   1.0000   0.5111   0.2757   0.1891
     0.1524   0.0947   0.0000   0.0000

          k =-0.0000 0.2887-0.2887 (  5007 PWs)   bands (ev):

   -87.0154 -53.2868 -53.2855 -53.2845  -1.9272  -1.2397  -1.1797  -1.1523
    -1.1383  -1.1108   1.5603   3.7646

     occupation numbers 
     1.0000   1.0000   1.0000   1.0000   1.0000   0.5111   0.2757   0.1891
     0.1524   0.0947   0.0000   0.0000

          k =-0.5774-0.2887-0.2887 (  5006 PWs)   bands (ev):

   -87.0153 -53.2866 -53.2849 -53.2849  -1.3314  -1.1933  -1.1933  -1.1352
    -1.1352  -0.9253   1.3435   1.3435

     occupation numbers 
     1.0000   1.0000   1.0000   1.0000   0.8367   0.3247   0.3247   0.1450
     0.1450   0.0006   0.0000   0.0000

          k = 0.0000 0.2887 0.2887 (  5007 PWs)   bands (ev):

   -87.0154 -53.2868 -53.2855 -53.2845  -1.9272  -1.2397  -1.1797  -1.1523
    -1.1383  -1.1108   1.5603   3.7646

     occupation numbers 
     1.0000   1.0000   1.0000   1.0000   1.0000   0.5111   0.2757   0.1891
     0.1524   0.0947   0.0000   0.0000

          k = 0.2887 0.5774 0.2887 (  5006 PWs)   bands (ev):

   -87.0153 -53.2866 -53.2849 -53.2849  -1.3314  -1.1933  -1.1933  -1.1352
    -1.1352  -0.9253   1.3435   1.3435

     occupation numbers 
     1.0000   1.0000   1.0000   1.0000   0.8367   0.3247   0.3247   0.1450
     0.1450   0.0006   0.0000   0.0000

          k =-0.2887-0.0000 0.2887 (  5007 PWs)   bands (ev):

   -87.0154 -53.2868 -53.2855 -53.2845  -1.9272  -1.2397  -1.1797  -1.1523
    -1.1383  -1.1108   1.5603   3.7646

     occupation numbers 
     1.0000   1.0000   1.0000   1.0000   1.0000   0.5111   0.2757   0.1891
     0.1524   0.0947   0.0000   0.0000

          k = 0.2887 0.2887 0.5774 (  5006 PWs)   bands (ev):

   -87.0153 -53.2866 -53.2849 -53.2849  -1.3314  -1.1933  -1.1933  -1.1352
    -1.1352  -0.9253   1.3435   1.3435

     occupation numbers 
     1.0000   1.0000   1.0000   1.0000   0.8367   0.3247   0.3247   0.1450
     0.1450   0.0006   0.0000   0.0000

          k = 0.5774 0.5774 0.5774 (  5006 PWs)   bands (ev):

   -87.0153 -53.2866 -53.2849 -53.2849  -1.3314  -1.1933  -1.1933  -1.1352
    -1.1352  -0.9253   1.3435   1.3435

     occupation numbers 
     1.0000   1.0000   1.0000   1.0000   0.8367   0.3247   0.3247   0.1450
     0.1450   0.0006   0.0000   0.0000

          k =-0.0000-0.0000 0.5774 (  5018 PWs)   bands (ev):

   -87.0157 -53.2866 -53.2866 -53.2859  -1.2985  -1.2570  -1.1438  -1.1438
    -1.1155  -1.0338   1.9296   2.5785

     occupation numbers 
     1.0000   1.0000   1.0000   1.0000   0.7388   0.5822   0.1662   0.1662
     0.1034   0.0173   0.0000   0.0000

          k =-0.2887 0.2887-0.0000 (  5007 PWs)   bands (ev):

   -87.0154 -53.2868 -53.2855 -53.2845  -1.9272  -1.2397  -1.1797  -1.1523
    -1.1383  -1.1108   1.5603   3.7646

     occupation numbers 
     1.0000   1.0000   1.0000   1.0000   1.0000   0.5111   0.2757   0.1891
     0.1524   0.0947   0.0000   0.0000

          k =-0.0000 0.5774-0.0000 (  5018 PWs)   bands (ev):

   -87.0157 -53.2866 -53.2866 -53.2859  -1.2985  -1.2570  -1.1438  -1.1438
    -1.1155  -1.0338   1.9296   2.5785

     occupation numbers 
     1.0000   1.0000   1.0000   1.0000   0.7388   0.5822   0.1662   0.1662
     0.1034   0.0173   0.0000   0.0000

          k =-0.5774-0.0000-0.0000 (  5018 PWs)   bands (ev):

   -87.0157 -53.2866 -53.2866 -53.2859  -1.2985  -1.2570  -1.1438  -1.1438
    -1.1155  -1.0338   1.9296   2.5785

     occupation numbers 
     1.0000   1.0000   1.0000   1.0000   0.7388   0.5822   0.1662   0.1662
     0.1034   0.0173   0.0000   0.0000

          k = 0.0000-0.2887-0.2887 (  5007 PWs)   bands (ev):

   -87.0154 -53.2868 -53.2855 -53.2845  -1.9272  -1.2397  -1.1797  -1.1523
    -1.1383  -1.1108   1.5603   3.7646

     occupation numbers 
     1.0000   1.0000   1.0000   1.0000   1.0000   0.5111   0.2757   0.1891
     0.1524   0.0947   0.0000   0.0000

          k = 0.2887-0.0000-0.2887 (  5007 PWs)   bands (ev):

   -87.0154 -53.2868 -53.2855 -53.2845  -1.9272  -1.2397  -1.1797  -1.1523
    -1.1383  -1.1108   1.5603   3.7646

     occupation numbers 
     1.0000   1.0000   1.0000   1.0000   1.0000   0.5111   0.2757   0.1891
     0.1524   0.0947   0.0000   0.0000

          k =-0.2887-0.5774-0.2887 (  5006 PWs)   bands (ev):

   -87.0153 -53.2866 -53.2849 -53.2849  -1.3314  -1.1933  -1.1933  -1.1352
    -1.1352  -0.9253   1.3435   1.3435

     occupation numbers 
     1.0000   1.0000   1.0000   1.0000   0.8367   0.3247   0.3247   0.1450
     0.1450   0.0006   0.0000   0.0000

          k = 0.2887-0.2887-0.0000 (  5007 PWs)   bands (ev):

   -87.0154 -53.2868 -53.2855 -53.2845  -1.9272  -1.2397  -1.1797  -1.1523
    -1.1383  -1.1108   1.5603   3.7646

     occupation numbers 
     1.0000   1.0000   1.0000   1.0000   1.0000   0.5111   0.2757   0.1891
     0.1524   0.0947   0.0000   0.0000

          k = 0.5774-0.0000-0.0000 (  5018 PWs)   bands (ev):

   -87.0157 -53.2866 -53.2866 -53.2859  -1.2985  -1.2570  -1.1438  -1.1438
    -1.1155  -1.0338   1.9296   2.5785

     occupation numbers 
     1.0000   1.0000   1.0000   1.0000   0.7388   0.5822   0.1662   0.1662
     0.1034   0.0173   0.0000   0.0000

          k =-0.0000-0.5774-0.0000 (  5018 PWs)   bands (ev):

   -87.0157 -53.2866 -53.2866 -53.2859  -1.2985  -1.2570  -1.1438  -1.1438
    -1.1155  -1.0338   1.9296   2.5785

     occupation numbers 
     1.0000   1.0000   1.0000   1.0000   0.7388   0.5822   0.1662   0.1662
     0.1034   0.0173   0.0000   0.0000

          k =-0.2887-0.2887-0.5774 (  5006 PWs)   bands (ev):

   -87.0153 -53.2866 -53.2849 -53.2849  -1.3314  -1.1933  -1.1933  -1.1352
    -1.1352  -0.9253   1.3435   1.3435

     occupation numbers 
     1.0000   1.0000   1.0000   1.0000   0.8367   0.3247   0.3247   0.1450
     0.1450   0.0006   0.0000   0.0000

          k =-0.0000-0.0000-0.5774 (  5018 PWs)   bands (ev):

   -87.0157 -53.2866 -53.2866 -53.2859  -1.2985  -1.2570  -1.1438  -1.1438
    -1.1155  -1.0338   1.9296   2.5785

     occupation numbers 
     1.0000   1.0000   1.0000   1.0000   0.7388   0.5822   0.1662   0.1662
     0.1034   0.0173   0.0000   0.0000

          k =-0.5774-0.5774-0.5774 (  5006 PWs)   bands (ev):

   -87.0153 -53.2866 -53.2849 -53.2849  -1.3314  -1.1933  -1.1933  -1.1352
    -1.1352  -0.9253   1.3435   1.3435

     occupation numbers 
     1.0000   1.0000   1.0000   1.0000   0.8367   0.3247   0.3247   0.1450
     0.1450   0.0006   0.0000   0.0000

     the Fermi energy is    -1.2370 ev

!    total energy              =    -249.88943307 Ry
     estimated scf accuracy    <          2.9E-13 Ry
     smearing contrib. (-TS)   =      -0.01010877 Ry
     internal energy E=F+TS    =    -249.87932431 Ry

     The total energy is F=E-TS. E is the sum of the following terms:
     one-electron contribution =    -254.18138370 Ry
     hartree contribution      =     124.88327743 Ry
     xc contribution           =     -34.69200187 Ry
     ewald contribution        =     -85.88921617 Ry
     Hubbard energy            =       0.00000000 Ry

     total magnetization       =     4.00 Bohr mag/cell
     absolute magnetization    =     4.01 Bohr mag/cell

     convergence has been achieved in  96 iterations

     Forces acting on atoms (cartesian axes, Ry/au):

     atom    1 type  1   force =     0.00000000    0.00000000    0.00000000
     The non-local contrib.  to forces
     atom    1 type  1   force =    -0.00000000    0.00000001    0.00000000
     The ionic contribution  to forces
     atom    1 type  1   force =    -0.00000000   -0.00000000   -0.00000000
     The local contribution  to forces
     atom    1 type  1   force =    -0.00000001    0.00000006    0.00000002
     The core correction contribution to forces
     atom    1 type  1   force =    -0.00000000    0.00000000    0.00000000
     The Hubbard contrib.    to forces
     atom    1 type  1   force =    -0.00000000    0.00000000    0.00000000
     The SCF correction term to forces
     atom    1 type  1   force =     0.00000001   -0.00000007   -0.00000003

     Total force =     0.000000     Total SCF correction =     0.000000


     Computing stress (Cartesian axis) and pressure

          total   stress  (Ry/bohr**3)                   (kbar)     P=     -267.31
  -0.00181712  -0.00000000   0.00000000         -267.31       -0.00        0.00
  -0.00000000  -0.00181712   0.00000000           -0.00     -267.31        0.00
   0.00000000   0.00000000  -0.00181712            0.00        0.00     -267.31

     kinetic stress (kbar)  17615.31      0.00     -0.00
                                0.00  17615.31     -0.00
                               -0.00     -0.00  17615.31

     local   stress (kbar) -15900.38     -0.00      0.00
                               -0.00 -15900.38      0.00
                                0.00      0.00 -15900.38

     nonloc. stress (kbar)  -2681.09     -0.00      0.00
                               -0.00  -2681.09      0.00
                                0.00      0.00  -2681.09

     hartree stress (kbar)   9596.37      0.00     -0.00
                                0.00   9596.37     -0.00
                               -0.00     -0.00   9596.37

     exc-cor stress (kbar)    -52.41      0.00      0.00
                                0.00    -52.41      0.00
                                0.00      0.00    -52.41

     corecor stress (kbar)  -2245.15     -0.00      0.00
                               -0.00  -2245.15      0.00
                                0.00      0.00  -2245.15

     ewald   stress (kbar)  -6599.96     -0.00     -0.00
                               -0.00  -6599.96     -0.00
                               -0.00     -0.00  -6599.96

     hubbard stress (kbar)     -0.00     -0.00      0.00
                               -0.00     -0.00      0.00
                                0.00      0.00     -0.00

     DFT-D   stress (kbar)      0.00      0.00      0.00
                                0.00      0.00      0.00
                                0.00      0.00      0.00

     XDM     stress (kbar)      0.00      0.00      0.00
                                0.00      0.00      0.00
                                0.00      0.00      0.00

     dft-nl  stress (kbar)      0.00      0.00      0.00
                                0.00      0.00      0.00
                                0.00      0.00      0.00

     TS-vdW  stress (kbar)      0.00      0.00      0.00
                                0.00      0.00      0.00
                                0.00      0.00      0.00

     MDB     stress (kbar)      0.00      0.00      0.00
                                0.00      0.00      0.00
                                0.00      0.00      0.00

     3D-RISM stress (kbar)      0.00      0.00      0.00
                                0.00      0.00      0.00
                                0.00      0.00      0.00


     Writing all to output data dir ./out/aiida.save/ :
     XML data file, charge density, pseudopotentials, collected wavefunctions

     init_run     :      1.64s CPU      1.72s WALL (       1 calls)
     electrons    :    356.13s CPU    356.86s WALL (       1 calls)
     forces       :      1.47s CPU      1.49s WALL (       1 calls)
     stress       :      5.91s CPU      5.96s WALL (       1 calls)

     Called by init_run:
     wfcinit      :      1.33s CPU      1.37s WALL (       1 calls)
     wfcinit:atom :      0.03s CPU      0.03s WALL (      54 calls)
     wfcinit:wfcr :      1.10s CPU      1.12s WALL (      54 calls)
     potinit      :      0.02s CPU      0.03s WALL (       1 calls)
     hinit0       :      0.26s CPU      0.29s WALL (       1 calls)

     Called by electrons:
     c_bands      :    295.37s CPU    295.89s WALL (      96 calls)
     sum_band     :     56.85s CPU     57.03s WALL (      96 calls)
     v_of_rho     :      2.00s CPU      2.01s WALL (      97 calls)
     v_h          :      0.17s CPU      0.17s WALL (      97 calls)
     v_xc         :      1.84s CPU      1.87s WALL (      99 calls)
     mix_rho      :      1.72s CPU      1.76s WALL (      96 calls)

     Called by c_bands:
     init_us_2    :     11.74s CPU     11.78s WALL (   10692 calls)
     cegterg      :    276.28s CPU    276.73s WALL (    5184 calls)

     Called by sum_band:
     sum_band:wei :      0.03s CPU      0.03s WALL (      96 calls)
     sum_band:loo :     53.95s CPU     54.12s WALL (      96 calls)
     sum_band:buf :      0.55s CPU      0.55s WALL (    5184 calls)
     sum_band:ini :      5.91s CPU      5.92s WALL (    5184 calls)

     Called by *egterg:
     cdiaghg      :      1.35s CPU      1.36s WALL (   11628 calls)
     cegterg:over :     18.05s CPU     18.07s WALL (    6444 calls)
     cegterg:upda :      8.15s CPU      8.16s WALL (    6444 calls)
     cegterg:last :      8.95s CPU      8.97s WALL (    6068 calls)
     h_psi        :    229.41s CPU    229.83s WALL (   11682 calls)
     g_psi        :      1.15s CPU      1.15s WALL (    6444 calls)

     Called by h_psi:
     h_psi:calbec :     14.46s CPU     14.48s WALL (   11682 calls)
     vloc_psi     :    195.90s CPU    196.27s WALL (   11682 calls)
     add_vuspsi   :     10.84s CPU     10.86s WALL (   11682 calls)
     vhpsi        :      7.18s CPU      7.19s WALL (   11682 calls)

     General routines
     calbec       :     21.06s CPU     21.12s WALL (   29682 calls)
     fft          :      0.69s CPU      0.70s WALL (     491 calls)
     ffts         :      0.22s CPU      0.22s WALL (     192 calls)
     fftw         :    211.74s CPU    212.25s WALL (  319982 calls)

     Parallel routines

     Hubbard U routines
     new_ns       :      2.35s CPU      2.36s WALL (      96 calls)
     vhpsi        :      7.18s CPU      7.19s WALL (   11682 calls)
     force_hub    :      1.11s CPU      1.11s WALL (       1 calls)
                                        0.00s GPU  (       1 calls)
     stres_hub    :      3.58s CPU      3.58s WALL (       1 calls)
                                        0.00s GPU  (       1 calls)

     PWSCF        :   6m 5.18s CPU   6m 6.14s WALL


   This run was terminated on:  11:40:34   2Jul2024            

=------------------------------------------------------------------------------=
   JOB DONE.
=------------------------------------------------------------------------------=
