
     Program PWSCF v.7.3.1 starts on 28Jun2024 at  1: 6:53 

     This program is part of the open-source Quantum ESPRESSO suite
     for quantum simulation of materials; please cite
         "P. Giannozzi et al., J. Phys.:Condens. Matter 21 395502 (2009);
         "P. Giannozzi et al., J. Phys.:Condens. Matter 29 465901 (2017);
         "P. Giannozzi et al., J. Chem. Phys. 152 154105 (2020);
          URL http://www.quantum-espresso.org", 
     in publications or presentations arising from this work. More details at
     http://www.quantum-espresso.org/quote

     Parallel version (MPI), running on     1 processors

     MPI processes distributed on     1 nodes
     474 MiB available memory on the printing compute node when the environment starts

     Reading input from Fe_no_mag.in

     Current dimensions of program PWSCF are:
     Max number of different atomic species (ntypx) = 10
     Max number of k-points (npk) =  40000
     Max angular momentum in pseudopotentials (lmaxx) =  4
     Message from routine volume:
     axis vectors are left-handed
     Message from routine setup:
     using ibrav=0 with symmetry is DISCOURAGED, use correct ibrav instead

     Subspace diagonalization in iterative solution of the eigenvalue problem:
     a serial algorithm will be used


     G-vector sticks info
     --------------------
     sticks:   dense  smooth     PW     G-vecs:    dense   smooth      PW
     Sum        3177    1595    451               113565    40143    5979

     Using Slab Decomposition



     bravais-lattice index     =            0
     lattice parameter (alat)  =       9.3938  a.u.
     unit-cell volume          =     638.1220 (a.u.)^3
     number of atoms/cell      =            1
     number of atomic types    =            1
     number of electrons       =        16.00
     number of Kohn-Sham states=           12
     kinetic-energy cutoff     =      60.0000  Ry
     charge density cutoff     =     480.0000  Ry
     scf convergence threshold =      1.0E-06
     mixing beta               =       0.7000
     number of iterations used =            8  plain     mixing
     Exchange-correlation= SLA  PW   NOGX NOGC
                           (   1   4   0   0   0   0   0)
     Hubbard projectors: ortho-atomic
     Hubbard parameters of DFT+U (Dudarev formulation) in eV:
     U(Fe-3d) =  0.0000

     Internal variables: lda_plus_u =T, lda_plus_u_kind = 0

     celldm(1)=   9.393812  celldm(2)=   0.000000  celldm(3)=   0.000000
     celldm(4)=   0.000000  celldm(5)=   0.000000  celldm(6)=   0.000000

     crystal axes: (cart. coord. in units of alat)
               a(1) = (   0.577350   0.577350  -0.577350 )  
               a(2) = (   0.577350  -0.577350   0.577350 )  
               a(3) = (  -0.577350   0.577350   0.577350 )  

     reciprocal axes: (cart. coord. in units 2 pi/alat)
               b(1) = (  0.866025  0.866025 -0.000000 )  
               b(2) = (  0.866025 -0.000000  0.866025 )  
               b(3) = ( -0.000000  0.866025  0.866025 )  


     PseudoPot. # 1 for Fe read from file:
     ./pseudo/Fe.upf
     MD5 check sum: b1fb9d3cb1d156aba92c681262384fac
     Pseudo is Norm-conserving + core correction, Zval = 16.0
     Generated using ONCVPSP code by D. R. Hamann
     Using radial grid of 1408 points,  6 beta functions with: 
                l(1) =   0
                l(2) =   0
                l(3) =   1
                l(4) =   1
                l(5) =   2
                l(6) =   2

     atomic species   valence    mass     pseudopotential
     Fe               16.00    55.84500     Fe( 1.00)

     Starting magnetic structure 
     atomic species   magnetization
     Fe              0.000

     48 Sym. Ops., with inversion, found


                                    s                        frac. trans.

      isym =  1     identity                                     

 cryst.   s( 1) = (     1          0          0      )
                  (     0          1          0      )
                  (     0          0          1      )

 cart.    s( 1) = (  1.0000000  0.0000000  0.0000000 )
                  (  0.0000000  1.0000000  0.0000000 )
                  (  0.0000000  0.0000000  1.0000000 )


      isym =  2     180 deg rotation - cart. axis [0,0,1]        

 cryst.   s( 2) = (    -1         -1         -1      )
                  (     0          0          1      )
                  (     0          1          0      )

 cart.    s( 2) = ( -1.0000000  0.0000000  0.0000000 )
                  (  0.0000000 -1.0000000  0.0000000 )
                  (  0.0000000  0.0000000  1.0000000 )


      isym =  3     180 deg rotation - cart. axis [0,1,0]        

 cryst.   s( 3) = (     0          0          1      )
                  (    -1         -1         -1      )
                  (     1          0          0      )

 cart.    s( 3) = ( -1.0000000  0.0000000  0.0000000 )
                  (  0.0000000  1.0000000  0.0000000 )
                  (  0.0000000  0.0000000 -1.0000000 )


      isym =  4     180 deg rotation - cart. axis [1,0,0]        

 cryst.   s( 4) = (     0          1          0      )
                  (     1          0          0      )
                  (    -1         -1         -1      )

 cart.    s( 4) = (  1.0000000  0.0000000  0.0000000 )
                  (  0.0000000 -1.0000000  0.0000000 )
                  (  0.0000000  0.0000000 -1.0000000 )


      isym =  5     180 deg rotation - cart. axis [1,1,0]        

 cryst.   s( 5) = (     1          1          1      )
                  (     0         -1          0      )
                  (     0          0         -1      )

 cart.    s( 5) = (  0.0000000  1.0000000  0.0000000 )
                  (  1.0000000  0.0000000  0.0000000 )
                  (  0.0000000  0.0000000 -1.0000000 )


      isym =  6     180 deg rotation - cart. axis [1,-1,0]       

 cryst.   s( 6) = (    -1          0          0      )
                  (     0          0         -1      )
                  (     0         -1          0      )

 cart.    s( 6) = (  0.0000000 -1.0000000  0.0000000 )
                  ( -1.0000000  0.0000000  0.0000000 )
                  (  0.0000000  0.0000000 -1.0000000 )


      isym =  7      90 deg rotation - cart. axis [0,0,-1]       

 cryst.   s( 7) = (     0          0         -1      )
                  (    -1          0          0      )
                  (     1          1          1      )

 cart.    s( 7) = (  0.0000000  1.0000000  0.0000000 )
                  ( -1.0000000  0.0000000  0.0000000 )
                  (  0.0000000  0.0000000  1.0000000 )


      isym =  8      90 deg rotation - cart. axis [0,0,1]        

 cryst.   s( 8) = (     0         -1          0      )
                  (     1          1          1      )
                  (    -1          0          0      )

 cart.    s( 8) = (  0.0000000 -1.0000000  0.0000000 )
                  (  1.0000000  0.0000000  0.0000000 )
                  (  0.0000000  0.0000000  1.0000000 )


      isym =  9     180 deg rotation - cart. axis [1,0,1]        

 cryst.   s( 9) = (    -1          0          0      )
                  (     1          1          1      )
                  (     0          0         -1      )

 cart.    s( 9) = (  0.0000000  0.0000000  1.0000000 )
                  (  0.0000000 -1.0000000  0.0000000 )
                  (  1.0000000  0.0000000  0.0000000 )


      isym = 10     180 deg rotation - cart. axis [-1,0,1]       

 cryst.   s(10) = (     0          0         -1      )
                  (     0         -1          0      )
                  (    -1          0          0      )

 cart.    s(10) = (  0.0000000  0.0000000 -1.0000000 )
                  (  0.0000000 -1.0000000  0.0000000 )
                  ( -1.0000000  0.0000000  0.0000000 )


      isym = 11      90 deg rotation - cart. axis [0,1,0]        

 cryst.   s(11) = (     0         -1          0      )
                  (     0          0         -1      )
                  (     1          1          1      )

 cart.    s(11) = (  0.0000000  0.0000000  1.0000000 )
                  (  0.0000000  1.0000000  0.0000000 )
                  ( -1.0000000  0.0000000  0.0000000 )


      isym = 12      90 deg rotation - cart. axis [0,-1,0]       

 cryst.   s(12) = (     1          1          1      )
                  (    -1          0          0      )
                  (     0         -1          0      )

 cart.    s(12) = (  0.0000000  0.0000000 -1.0000000 )
                  (  0.0000000  1.0000000  0.0000000 )
                  (  1.0000000  0.0000000  0.0000000 )


      isym = 13     180 deg rotation - cart. axis [0,1,1]        

 cryst.   s(13) = (    -1          0          0      )
                  (     0         -1          0      )
                  (     1          1          1      )

 cart.    s(13) = ( -1.0000000  0.0000000  0.0000000 )
                  (  0.0000000  0.0000000  1.0000000 )
                  (  0.0000000  1.0000000  0.0000000 )


      isym = 14     180 deg rotation - cart. axis [0,1,-1]       

 cryst.   s(14) = (     0         -1          0      )
                  (    -1          0          0      )
                  (     0          0         -1      )

 cart.    s(14) = ( -1.0000000  0.0000000  0.0000000 )
                  (  0.0000000  0.0000000 -1.0000000 )
                  (  0.0000000 -1.0000000  0.0000000 )


      isym = 15      90 deg rotation - cart. axis [-1,0,0]       

 cryst.   s(15) = (     0          0         -1      )
                  (     1          1          1      )
                  (     0         -1          0      )

 cart.    s(15) = (  1.0000000  0.0000000  0.0000000 )
                  (  0.0000000  0.0000000  1.0000000 )
                  (  0.0000000 -1.0000000  0.0000000 )


      isym = 16      90 deg rotation - cart. axis [1,0,0]        

 cryst.   s(16) = (     1          1          1      )
                  (     0          0         -1      )
                  (    -1          0          0      )

 cart.    s(16) = (  1.0000000  0.0000000  0.0000000 )
                  (  0.0000000  0.0000000 -1.0000000 )
                  (  0.0000000  1.0000000  0.0000000 )


      isym = 17     120 deg rotation - cart. axis [-1,-1,-1]     

 cryst.   s(17) = (     0          1          0      )
                  (     0          0          1      )
                  (     1          0          0      )

 cart.    s(17) = (  0.0000000  1.0000000  0.0000000 )
                  (  0.0000000  0.0000000  1.0000000 )
                  (  1.0000000  0.0000000  0.0000000 )


      isym = 18     120 deg rotation - cart. axis [-1,1,1]       

 cryst.   s(18) = (    -1         -1         -1      )
                  (     1          0          0      )
                  (     0          0          1      )

 cart.    s(18) = (  0.0000000 -1.0000000  0.0000000 )
                  (  0.0000000  0.0000000  1.0000000 )
                  ( -1.0000000  0.0000000  0.0000000 )


      isym = 19     120 deg rotation - cart. axis [1,1,-1]       

 cryst.   s(19) = (     1          0          0      )
                  (    -1         -1         -1      )
                  (     0          1          0      )

 cart.    s(19) = (  0.0000000  1.0000000  0.0000000 )
                  (  0.0000000  0.0000000 -1.0000000 )
                  ( -1.0000000  0.0000000  0.0000000 )


      isym = 20     120 deg rotation - cart. axis [1,-1,1]       

 cryst.   s(20) = (     0          0          1      )
                  (     0          1          0      )
                  (    -1         -1         -1      )

 cart.    s(20) = (  0.0000000 -1.0000000  0.0000000 )
                  (  0.0000000  0.0000000 -1.0000000 )
                  (  1.0000000  0.0000000  0.0000000 )


      isym = 21     120 deg rotation - cart. axis [1,1,1]        

 cryst.   s(21) = (     0          0          1      )
                  (     1          0          0      )
                  (     0          1          0      )

 cart.    s(21) = (  0.0000000  0.0000000  1.0000000 )
                  (  1.0000000  0.0000000  0.0000000 )
                  (  0.0000000  1.0000000  0.0000000 )


      isym = 22     120 deg rotation - cart. axis [-1,1,-1]      

 cryst.   s(22) = (    -1         -1         -1      )
                  (     0          1          0      )
                  (     1          0          0      )

 cart.    s(22) = (  0.0000000  0.0000000  1.0000000 )
                  ( -1.0000000  0.0000000  0.0000000 )
                  (  0.0000000 -1.0000000  0.0000000 )


      isym = 23     120 deg rotation - cart. axis [1,-1,-1]      

 cryst.   s(23) = (     0          1          0      )
                  (    -1         -1         -1      )
                  (     0          0          1      )

 cart.    s(23) = (  0.0000000  0.0000000 -1.0000000 )
                  ( -1.0000000  0.0000000  0.0000000 )
                  (  0.0000000  1.0000000  0.0000000 )


      isym = 24     120 deg rotation - cart. axis [-1,-1,1]      

 cryst.   s(24) = (     1          0          0      )
                  (     0          0          1      )
                  (    -1         -1         -1      )

 cart.    s(24) = (  0.0000000  0.0000000 -1.0000000 )
                  (  1.0000000  0.0000000  0.0000000 )
                  (  0.0000000 -1.0000000  0.0000000 )


      isym = 25     inversion                                    

 cryst.   s(25) = (    -1          0          0      )
                  (     0         -1          0      )
                  (     0          0         -1      )

 cart.    s(25) = ( -1.0000000  0.0000000  0.0000000 )
                  (  0.0000000 -1.0000000  0.0000000 )
                  (  0.0000000  0.0000000 -1.0000000 )


      isym = 26     inv. 180 deg rotation - cart. axis [0,0,1]   

 cryst.   s(26) = (     1          1          1      )
                  (     0          0         -1      )
                  (     0         -1          0      )

 cart.    s(26) = (  1.0000000  0.0000000  0.0000000 )
                  (  0.0000000  1.0000000  0.0000000 )
                  (  0.0000000  0.0000000 -1.0000000 )


      isym = 27     inv. 180 deg rotation - cart. axis [0,1,0]   

 cryst.   s(27) = (     0          0         -1      )
                  (     1          1          1      )
                  (    -1          0          0      )

 cart.    s(27) = (  1.0000000  0.0000000  0.0000000 )
                  (  0.0000000 -1.0000000  0.0000000 )
                  (  0.0000000  0.0000000  1.0000000 )


      isym = 28     inv. 180 deg rotation - cart. axis [1,0,0]   

 cryst.   s(28) = (     0         -1          0      )
                  (    -1          0          0      )
                  (     1          1          1      )

 cart.    s(28) = ( -1.0000000  0.0000000  0.0000000 )
                  (  0.0000000  1.0000000  0.0000000 )
                  (  0.0000000  0.0000000  1.0000000 )


      isym = 29     inv. 180 deg rotation - cart. axis [1,1,0]   

 cryst.   s(29) = (    -1         -1         -1      )
                  (     0          1          0      )
                  (     0          0          1      )

 cart.    s(29) = (  0.0000000 -1.0000000  0.0000000 )
                  ( -1.0000000  0.0000000  0.0000000 )
                  (  0.0000000  0.0000000  1.0000000 )


      isym = 30     inv. 180 deg rotation - cart. axis [1,-1,0]  

 cryst.   s(30) = (     1          0          0      )
                  (     0          0          1      )
                  (     0          1          0      )

 cart.    s(30) = (  0.0000000  1.0000000  0.0000000 )
                  (  1.0000000  0.0000000  0.0000000 )
                  (  0.0000000  0.0000000  1.0000000 )


      isym = 31     inv.  90 deg rotation - cart. axis [0,0,-1]  

 cryst.   s(31) = (     0          0          1      )
                  (     1          0          0      )
                  (    -1         -1         -1      )

 cart.    s(31) = (  0.0000000 -1.0000000  0.0000000 )
                  (  1.0000000  0.0000000  0.0000000 )
                  (  0.0000000  0.0000000 -1.0000000 )


      isym = 32     inv.  90 deg rotation - cart. axis [0,0,1]   

 cryst.   s(32) = (     0          1          0      )
                  (    -1         -1         -1      )
                  (     1          0          0      )

 cart.    s(32) = (  0.0000000  1.0000000  0.0000000 )
                  ( -1.0000000  0.0000000  0.0000000 )
                  (  0.0000000  0.0000000 -1.0000000 )


      isym = 33     inv. 180 deg rotation - cart. axis [1,0,1]   

 cryst.   s(33) = (     1          0          0      )
                  (    -1         -1         -1      )
                  (     0          0          1      )

 cart.    s(33) = (  0.0000000  0.0000000 -1.0000000 )
                  (  0.0000000  1.0000000  0.0000000 )
                  ( -1.0000000  0.0000000  0.0000000 )


      isym = 34     inv. 180 deg rotation - cart. axis [-1,0,1]  

 cryst.   s(34) = (     0          0          1      )
                  (     0          1          0      )
                  (     1          0          0      )

 cart.    s(34) = (  0.0000000  0.0000000  1.0000000 )
                  (  0.0000000  1.0000000  0.0000000 )
                  (  1.0000000  0.0000000  0.0000000 )


      isym = 35     inv.  90 deg rotation - cart. axis [0,1,0]   

 cryst.   s(35) = (     0          1          0      )
                  (     0          0          1      )
                  (    -1         -1         -1      )

 cart.    s(35) = (  0.0000000  0.0000000 -1.0000000 )
                  (  0.0000000 -1.0000000  0.0000000 )
                  (  1.0000000  0.0000000  0.0000000 )


      isym = 36     inv.  90 deg rotation - cart. axis [0,-1,0]  

 cryst.   s(36) = (    -1         -1         -1      )
                  (     1          0          0      )
                  (     0          1          0      )

 cart.    s(36) = (  0.0000000  0.0000000  1.0000000 )
                  (  0.0000000 -1.0000000  0.0000000 )
                  ( -1.0000000  0.0000000  0.0000000 )


      isym = 37     inv. 180 deg rotation - cart. axis [0,1,1]   

 cryst.   s(37) = (     1          0          0      )
                  (     0          1          0      )
                  (    -1         -1         -1      )

 cart.    s(37) = (  1.0000000  0.0000000  0.0000000 )
                  (  0.0000000  0.0000000 -1.0000000 )
                  (  0.0000000 -1.0000000  0.0000000 )


      isym = 38     inv. 180 deg rotation - cart. axis [0,1,-1]  

 cryst.   s(38) = (     0          1          0      )
                  (     1          0          0      )
                  (     0          0          1      )

 cart.    s(38) = (  1.0000000  0.0000000  0.0000000 )
                  (  0.0000000  0.0000000  1.0000000 )
                  (  0.0000000  1.0000000  0.0000000 )


      isym = 39     inv.  90 deg rotation - cart. axis [-1,0,0]  

 cryst.   s(39) = (     0          0          1      )
                  (    -1         -1         -1      )
                  (     0          1          0      )

 cart.    s(39) = ( -1.0000000  0.0000000  0.0000000 )
                  (  0.0000000  0.0000000 -1.0000000 )
                  (  0.0000000  1.0000000  0.0000000 )


      isym = 40     inv.  90 deg rotation - cart. axis [1,0,0]   

 cryst.   s(40) = (    -1         -1         -1      )
                  (     0          0          1      )
                  (     1          0          0      )

 cart.    s(40) = ( -1.0000000  0.0000000  0.0000000 )
                  (  0.0000000  0.0000000  1.0000000 )
                  (  0.0000000 -1.0000000  0.0000000 )


      isym = 41     inv. 120 deg rotation - cart. axis [-1,-1,-1]

 cryst.   s(41) = (     0         -1          0      )
                  (     0          0         -1      )
                  (    -1          0          0      )

 cart.    s(41) = (  0.0000000 -1.0000000  0.0000000 )
                  (  0.0000000  0.0000000 -1.0000000 )
                  ( -1.0000000  0.0000000  0.0000000 )


      isym = 42     inv. 120 deg rotation - cart. axis [-1,1,1]  

 cryst.   s(42) = (     1          1          1      )
                  (    -1          0          0      )
                  (     0          0         -1      )

 cart.    s(42) = (  0.0000000  1.0000000  0.0000000 )
                  (  0.0000000  0.0000000 -1.0000000 )
                  (  1.0000000  0.0000000  0.0000000 )


      isym = 43     inv. 120 deg rotation - cart. axis [1,1,-1]  

 cryst.   s(43) = (    -1          0          0      )
                  (     1          1          1      )
                  (     0         -1          0      )

 cart.    s(43) = (  0.0000000 -1.0000000  0.0000000 )
                  (  0.0000000  0.0000000  1.0000000 )
                  (  1.0000000  0.0000000  0.0000000 )


      isym = 44     inv. 120 deg rotation - cart. axis [1,-1,1]  

 cryst.   s(44) = (     0          0         -1      )
                  (     0         -1          0      )
                  (     1          1          1      )

 cart.    s(44) = (  0.0000000  1.0000000  0.0000000 )
                  (  0.0000000  0.0000000  1.0000000 )
                  ( -1.0000000  0.0000000  0.0000000 )


      isym = 45     inv. 120 deg rotation - cart. axis [1,1,1]   

 cryst.   s(45) = (     0          0         -1      )
                  (    -1          0          0      )
                  (     0         -1          0      )

 cart.    s(45) = (  0.0000000  0.0000000 -1.0000000 )
                  ( -1.0000000  0.0000000  0.0000000 )
                  (  0.0000000 -1.0000000  0.0000000 )


      isym = 46     inv. 120 deg rotation - cart. axis [-1,1,-1] 

 cryst.   s(46) = (     1          1          1      )
                  (     0         -1          0      )
                  (    -1          0          0      )

 cart.    s(46) = (  0.0000000  0.0000000 -1.0000000 )
                  (  1.0000000  0.0000000  0.0000000 )
                  (  0.0000000  1.0000000  0.0000000 )


      isym = 47     inv. 120 deg rotation - cart. axis [1,-1,-1] 

 cryst.   s(47) = (     0         -1          0      )
                  (     1          1          1      )
                  (     0          0         -1      )

 cart.    s(47) = (  0.0000000  0.0000000  1.0000000 )
                  (  1.0000000  0.0000000  0.0000000 )
                  (  0.0000000 -1.0000000  0.0000000 )


      isym = 48     inv. 120 deg rotation - cart. axis [-1,-1,1] 

 cryst.   s(48) = (    -1          0          0      )
                  (     0          0         -1      )
                  (     1          1          1      )

 cart.    s(48) = (  0.0000000  0.0000000  1.0000000 )
                  ( -1.0000000  0.0000000  0.0000000 )
                  (  0.0000000  1.0000000  0.0000000 )


   Cartesian axes

     site n.     atom                  positions (alat units)
         1        Fe     tau(   1) = (   0.0000000   0.0000000   0.0000000  )

   Crystallographic axes

     site n.     atom                  positions (cryst. coord.)
         1        Fe     tau(   1) = (  0.0000000  0.0000000  0.0000000  )

     number of k points=     4  Marzari-Vanderbilt smearing, width (Ry)=  0.0100
                       cart. coord. in units 2pi/alat
        k(    1) = (   0.0000000   0.0000000   0.0000000), wk =   0.0370370
        k(    2) = (   0.0000000   0.2886751   0.2886751), wk =   0.4444444
        k(    3) = (   0.2886751   0.2886751   0.5773503), wk =   0.2962963
        k(    4) = (   0.5773503  -0.0000000  -0.0000000), wk =   0.2222222

                       cryst. coord.
        k(    1) = (   0.0000000   0.0000000   0.0000000), wk =   0.0370370
        k(    2) = (   0.0000000   0.0000000   0.3333333), wk =   0.4444444
        k(    3) = (   0.0000000   0.3333333   0.3333333), wk =   0.2962963
        k(    4) = (   0.3333333   0.3333333  -0.3333333), wk =   0.2222222

     Dense  grid:   113565 G-vectors     FFT dimensions: (  72,  72,  72)

     Smooth grid:    40143 G-vectors     FFT dimensions: (  48,  48,  48)

     Dynamical RAM for                 wfc:       0.92 MB

     Dynamical RAM for     wfc (w. buffer):       8.25 MB

     Dynamical RAM for             U proj.:       0.38 MB

     Dynamical RAM for  U proj. (w. buff.):       3.44 MB

     Dynamical RAM for           str. fact:       1.73 MB

     Dynamical RAM for           local pot:       0.00 MB

     Dynamical RAM for          nlocal pot:       1.38 MB

     Dynamical RAM for                qrad:       1.76 MB

     Dynamical RAM for          rho,v,vnew:      27.48 MB

     Dynamical RAM for               rhoin:       9.16 MB

     Dynamical RAM for            rho*nmix:      55.45 MB

     Dynamical RAM for           G-vectors:       6.80 MB

     Dynamical RAM for          h,s,v(r/c):       0.03 MB

     Dynamical RAM for          <psi|beta>:       0.00 MB

     Dynamical RAM for                 psi:       1.83 MB

     Dynamical RAM for                hpsi:       1.83 MB

     Dynamical RAM for      wfcinit/wfcrot:       1.84 MB

     Estimated static dynamical RAM per process >      80.56 MB

     Estimated max dynamical RAM per process >     139.71 MB
     Generating pointlists ...
     new r_m :   0.4125 (alat units)  3.8749 (a.u.) for type    1

     Initial potential from superposition of free atoms

     starting charge      15.9997, renormalised to      16.0000

     HUBBARD ENERGY =    0.0000  (Ry)

     STARTING HUBBARD OCCUPATIONS:

     =================== HUBBARD OCCUPATIONS ===================
     ------------------------ ATOM    1 ------------------------
     Tr[ns(  1)] (up, down, total) =   3.00000  3.00000  6.00000
     Atomic magnetic moment for atom   1 =   0.00000
     SPIN  1
     eigenvalues:
       0.600  0.600  0.600  0.600  0.600
     eigenvectors (columns):
       1.000  0.000  0.000  0.000  0.000
       0.000  1.000  0.000  0.000  0.000
       0.000  0.000  1.000  0.000  0.000
       0.000  0.000  0.000  1.000  0.000
       0.000  0.000  0.000  0.000  1.000
     occupation matrix ns (before diag.):
       0.600  0.000  0.000  0.000  0.000
       0.000  0.600  0.000  0.000  0.000
       0.000  0.000  0.600  0.000  0.000
       0.000  0.000  0.000  0.600  0.000
       0.000  0.000  0.000  0.000  0.600
     SPIN  2
     eigenvalues:
       0.600  0.600  0.600  0.600  0.600
     eigenvectors (columns):
       1.000  0.000  0.000  0.000  0.000
       0.000  1.000  0.000  0.000  0.000
       0.000  0.000  1.000  0.000  0.000
       0.000  0.000  0.000  1.000  0.000
       0.000  0.000  0.000  0.000  1.000
     occupation matrix ns (before diag.):
       0.600  0.000  0.000  0.000  0.000
       0.000  0.600  0.000  0.000  0.000
       0.000  0.000  0.600  0.000  0.000
       0.000  0.000  0.000  0.600  0.000
       0.000  0.000  0.000  0.000  0.600

     Number of occupied Hubbard levels =    6.0000

     Atomic wfc used for Hubbard projectors are orthogonalized

     Starting wfcs are   10 randomized atomic wfcs +    2 random wfcs

     total cpu time spent up to now is        1.1 secs

     Self-consistent Calculation

     iteration #  1     ecut=    60.00 Ry     beta= 0.70
     Davidson diagonalization with overlap

---- Real-time Memory Report at c_bands before calling an iterative solver
           106 MiB given to the printing process from OS
             0 MiB allocation reported by mallinfo(arena+hblkhd)
           392 MiB available memory on the node where the printing process lives
------------------
     ethr =  1.00E-02,  avg # of iterations =  6.9

     =================== HUBBARD OCCUPATIONS ===================
     ------------------------ ATOM    1 ------------------------
     Tr[ns(  1)] (up, down, total) =   3.99602  3.99622  7.99224
     Atomic magnetic moment for atom   1 =  -0.00020
     SPIN  1
     eigenvalues:
       0.791  0.791  0.804  0.804  0.804
     eigenvectors (columns):
       0.321 -0.947 -0.000 -0.000  0.000
      -0.000 -0.000  0.348 -0.407 -0.844
      -0.000 -0.000  0.542 -0.647  0.536
       0.947  0.321  0.000  0.000 -0.000
       0.000  0.000 -0.765 -0.645 -0.004
     occupation matrix ns (before diag.):
       0.791 -0.000 -0.000 -0.000  0.000
      -0.000  0.804 -0.000  0.000  0.000
      -0.000 -0.000  0.804  0.000  0.000
      -0.000  0.000  0.000  0.791 -0.000
       0.000  0.000  0.000 -0.000  0.804
     SPIN  2
     eigenvalues:
       0.791  0.791  0.804  0.804  0.804
     eigenvectors (columns):
       0.339  0.941  0.000  0.000 -0.000
      -0.000  0.000 -0.336  0.248  0.909
      -0.000  0.000 -0.576  0.710 -0.406
       0.941 -0.339 -0.000 -0.000  0.000
       0.000 -0.000  0.746  0.660  0.096
     occupation matrix ns (before diag.):
       0.791 -0.000 -0.000 -0.000  0.000
      -0.000  0.804 -0.000  0.000  0.000
      -0.000 -0.000  0.804  0.000  0.000
      -0.000  0.000  0.000  0.791 -0.000
       0.000  0.000  0.000 -0.000  0.804

     Number of occupied Hubbard levels =    7.9922

     HUBBARD ENERGY =    0.0000  (Ry)

     total cpu time spent up to now is        1.8 secs

     total energy              =    -248.99888505 Ry
     estimated scf accuracy    <       1.09165870 Ry

     total magnetization       =    -0.00 Bohr mag/cell
     absolute magnetization    =     0.00 Bohr mag/cell

     iteration #  2     ecut=    60.00 Ry     beta= 0.70
     Davidson diagonalization with overlap

---- Real-time Memory Report at c_bands before calling an iterative solver
           131 MiB given to the printing process from OS
             0 MiB allocation reported by mallinfo(arena+hblkhd)
           366 MiB available memory on the node where the printing process lives
------------------
     ethr =  6.82E-03,  avg # of iterations =  5.2

     =================== HUBBARD OCCUPATIONS ===================
     ------------------------ ATOM    1 ------------------------
     Tr[ns(  1)] (up, down, total) =   0.42442  0.45510  0.87952
     Atomic magnetic moment for atom   1 =  -0.03068
     SPIN  1
     eigenvalues:
       0.045  0.045  0.112  0.112  0.112
     eigenvectors (columns):
      -0.315  0.949  0.000  0.000  0.000
       0.000  0.000 -0.356  0.436 -0.827
       0.000  0.000 -0.563  0.607  0.562
      -0.949 -0.315 -0.000 -0.000 -0.000
      -0.000 -0.000  0.746  0.665  0.029
     occupation matrix ns (before diag.):
       0.045 -0.000 -0.000 -0.000  0.000
      -0.000  0.112 -0.000  0.000  0.000
      -0.000 -0.000  0.112  0.000  0.000
      -0.000  0.000  0.000  0.045 -0.000
       0.000  0.000  0.000 -0.000  0.112
     SPIN  2
     eigenvalues:
       0.046  0.046  0.121  0.121  0.121
     eigenvectors (columns):
       0.503  0.864 -0.000 -0.000 -0.000
      -0.000  0.000  0.320 -0.284  0.904
      -0.000  0.000  0.561 -0.713 -0.422
       0.864 -0.503  0.000  0.000  0.000
       0.000 -0.000 -0.764 -0.642  0.069
     occupation matrix ns (before diag.):
       0.046 -0.000 -0.000 -0.000  0.000
      -0.000  0.121 -0.000  0.000  0.000
      -0.000 -0.000  0.121  0.000  0.000
      -0.000  0.000  0.000  0.046 -0.000
       0.000  0.000  0.000 -0.000  0.121

     Number of occupied Hubbard levels =    0.8795

     HUBBARD ENERGY =    0.0000  (Ry)

     total cpu time spent up to now is        2.6 secs

     total energy              =    -247.87035510 Ry
     estimated scf accuracy    <      22.43623451 Ry

     total magnetization       =    -0.32 Bohr mag/cell
     absolute magnetization    =     0.32 Bohr mag/cell

     iteration #  3     ecut=    60.00 Ry     beta= 0.70
     Davidson diagonalization with overlap

---- Real-time Memory Report at c_bands before calling an iterative solver
           133 MiB given to the printing process from OS
             0 MiB allocation reported by mallinfo(arena+hblkhd)
           364 MiB available memory on the node where the printing process lives
------------------
     ethr =  6.82E-03,  avg # of iterations =  3.8

     =================== HUBBARD OCCUPATIONS ===================
     ------------------------ ATOM    1 ------------------------
     Tr[ns(  1)] (up, down, total) =   3.40706  3.56002  6.96708
     Atomic magnetic moment for atom   1 =  -0.15296
     SPIN  1
     eigenvalues:
       0.613  0.613  0.613  0.784  0.784
     eigenvectors (columns):
      -0.000 -0.000  0.000 -0.293  0.956
      -0.350  0.208  0.914 -0.000 -0.000
      -0.611  0.688 -0.390 -0.000 -0.000
       0.000  0.000 -0.000 -0.956 -0.293
       0.710  0.695  0.114  0.000  0.000
     occupation matrix ns (before diag.):
       0.784 -0.000 -0.000 -0.000  0.000
      -0.000  0.613 -0.000  0.000  0.000
      -0.000 -0.000  0.613  0.000  0.000
      -0.000  0.000  0.000  0.784 -0.000
       0.000  0.000  0.000 -0.000  0.613
     SPIN  2
     eigenvalues:
       0.660  0.660  0.660  0.790  0.790
     eigenvectors (columns):
      -0.000 -0.000  0.000 -0.353  0.936
      -0.345  0.157  0.925 -0.000 -0.000
      -0.618  0.704 -0.350 -0.000 -0.000
       0.000  0.000 -0.000 -0.936 -0.353
       0.706  0.693  0.146  0.000  0.000
     occupation matrix ns (before diag.):
       0.790 -0.000 -0.000 -0.000  0.000
      -0.000  0.660 -0.000  0.000  0.000
      -0.000 -0.000  0.660  0.000  0.000
      -0.000  0.000  0.000  0.790 -0.000
       0.000  0.000  0.000 -0.000  0.660

     Number of occupied Hubbard levels =    6.9671

     HUBBARD ENERGY =    0.0000  (Ry)

     total cpu time spent up to now is        3.3 secs

     total energy              =    -249.68502387 Ry
     estimated scf accuracy    <       0.02311099 Ry

     total magnetization       =    -0.16 Bohr mag/cell
     absolute magnetization    =     0.16 Bohr mag/cell

     iteration #  4     ecut=    60.00 Ry     beta= 0.70
     Davidson diagonalization with overlap

---- Real-time Memory Report at c_bands before calling an iterative solver
           136 MiB given to the printing process from OS
             0 MiB allocation reported by mallinfo(arena+hblkhd)
           363 MiB available memory on the node where the printing process lives
------------------
     ethr =  1.44E-04,  avg # of iterations =  5.5

     =================== HUBBARD OCCUPATIONS ===================
     ------------------------ ATOM    1 ------------------------
     Tr[ns(  1)] (up, down, total) =   2.97858  4.05990  7.03848
     Atomic magnetic moment for atom   1 =  -1.08132
     SPIN  1
     eigenvalues:
       0.532  0.532  0.638  0.638  0.638
     eigenvectors (columns):
       0.386  0.923  0.000  0.000 -0.000
      -0.000  0.000 -0.342  0.288  0.894
      -0.000  0.000 -0.572  0.691 -0.441
       0.923 -0.386 -0.000 -0.000  0.000
       0.000 -0.000  0.745  0.663  0.072
     occupation matrix ns (before diag.):
       0.532 -0.000 -0.000 -0.000  0.000
      -0.000  0.638 -0.000  0.000  0.000
      -0.000 -0.000  0.638  0.000  0.000
      -0.000  0.000  0.000  0.532 -0.000
       0.000  0.000  0.000 -0.000  0.638
     SPIN  2
     eigenvalues:
       0.724  0.724  0.871  0.871  0.871
     eigenvectors (columns):
      -0.414 -0.910 -0.000 -0.000 -0.000
       0.000 -0.000  0.327 -0.310  0.893
       0.000 -0.000  0.554 -0.702 -0.447
      -0.910  0.414  0.000  0.000  0.000
      -0.000  0.000 -0.765 -0.641  0.058
     occupation matrix ns (before diag.):
       0.724 -0.000 -0.000 -0.000  0.000
      -0.000  0.871 -0.000  0.000  0.000
      -0.000 -0.000  0.871  0.000  0.000
      -0.000  0.000  0.000  0.724 -0.000
       0.000  0.000  0.000 -0.000  0.871

     Number of occupied Hubbard levels =    7.0385

     HUBBARD ENERGY =    0.0000  (Ry)

     total cpu time spent up to now is        4.1 secs

     total energy              =    -249.70945423 Ry
     estimated scf accuracy    <       0.04312128 Ry

     total magnetization       =    -1.11 Bohr mag/cell
     absolute magnetization    =     1.11 Bohr mag/cell

     iteration #  5     ecut=    60.00 Ry     beta= 0.70
     Davidson diagonalization with overlap

---- Real-time Memory Report at c_bands before calling an iterative solver
           138 MiB given to the printing process from OS
             0 MiB allocation reported by mallinfo(arena+hblkhd)
           360 MiB available memory on the node where the printing process lives
------------------
     ethr =  1.44E-04,  avg # of iterations =  1.0

     =================== HUBBARD OCCUPATIONS ===================
     ------------------------ ATOM    1 ------------------------
     Tr[ns(  1)] (up, down, total) =   1.91238  5.08525  6.99762
     Atomic magnetic moment for atom   1 =  -3.17287
     SPIN  1
     eigenvalues:
       0.362  0.362  0.396  0.396  0.396
     eigenvectors (columns):
       0.383  0.924  0.000  0.000 -0.000
      -0.000  0.000 -0.339  0.194  0.920
      -0.000  0.000 -0.592  0.716 -0.369
       0.924 -0.383 -0.000 -0.000  0.000
       0.000 -0.000  0.731  0.670  0.128
     occupation matrix ns (before diag.):
       0.362 -0.000 -0.000 -0.000  0.000
      -0.000  0.396 -0.000  0.000  0.000
      -0.000 -0.000  0.396  0.000  0.000
      -0.000  0.000  0.000  0.362 -0.000
       0.000  0.000  0.000 -0.000  0.396
     SPIN  2
     eigenvalues:
       1.010  1.010  1.022  1.022  1.022
     eigenvectors (columns):
       0.316  0.949  0.000  0.000 -0.000
      -0.000  0.000 -0.335  0.226  0.915
      -0.000  0.000 -0.586  0.710 -0.390
       0.949 -0.316 -0.000 -0.000  0.000
       0.000 -0.000  0.738  0.667  0.105
     occupation matrix ns (before diag.):
       1.010 -0.000 -0.000 -0.000  0.000
      -0.000  1.022 -0.000  0.000  0.000
      -0.000 -0.000  1.022  0.000  0.000
      -0.000  0.000  0.000  1.010 -0.000
       0.000  0.000  0.000 -0.000  1.022

     Number of occupied Hubbard levels =    6.9976

     HUBBARD ENERGY =    0.0000  (Ry)

     total cpu time spent up to now is        4.6 secs

     total energy              =    -249.69695269 Ry
     estimated scf accuracy    <       0.18792243 Ry

     total magnetization       =    -3.24 Bohr mag/cell
     absolute magnetization    =     3.24 Bohr mag/cell

     iteration #  6     ecut=    60.00 Ry     beta= 0.70
     Davidson diagonalization with overlap

---- Real-time Memory Report at c_bands before calling an iterative solver
           141 MiB given to the printing process from OS
             0 MiB allocation reported by mallinfo(arena+hblkhd)
           356 MiB available memory on the node where the printing process lives
------------------
     ethr =  1.44E-04,  avg # of iterations =  1.0

     =================== HUBBARD OCCUPATIONS ===================
     ------------------------ ATOM    1 ------------------------
     Tr[ns(  1)] (up, down, total) =   3.29854  3.69839  6.99694
     Atomic magnetic moment for atom   1 =  -0.39985
     SPIN  1
     eigenvalues:
       0.606  0.606  0.606  0.740  0.740
     eigenvectors (columns):
      -0.000 -0.000  0.000 -0.325  0.946
      -0.347  0.385  0.855 -0.000 -0.000
      -0.559  0.647 -0.519 -0.000 -0.000
       0.000  0.000 -0.000 -0.946 -0.325
       0.753  0.658  0.009  0.000  0.000
     occupation matrix ns (before diag.):
       0.740 -0.000 -0.000 -0.000  0.000
      -0.000  0.606 -0.000  0.000  0.000
      -0.000 -0.000  0.606  0.000  0.000
      -0.000  0.000  0.000  0.740 -0.000
       0.000  0.000  0.000 -0.000  0.606
     SPIN  2
     eigenvalues:
       0.720  0.720  0.752  0.752  0.752
     eigenvectors (columns):
       0.245 -0.970 -0.000 -0.000 -0.000
      -0.000 -0.000  0.351 -0.311  0.883
      -0.000 -0.000  0.573 -0.675 -0.465
       0.970  0.245  0.000  0.000  0.000
       0.000  0.000 -0.741 -0.669  0.058
     occupation matrix ns (before diag.):
       0.720 -0.000 -0.000 -0.000  0.000
      -0.000  0.752 -0.000  0.000  0.000
      -0.000 -0.000  0.752  0.000  0.000
      -0.000  0.000  0.000  0.720 -0.000
       0.000  0.000  0.000 -0.000  0.752

     Number of occupied Hubbard levels =    6.9969

     HUBBARD ENERGY =    0.0000  (Ry)

     total cpu time spent up to now is        5.1 secs

     total energy              =    -249.70251599 Ry
     estimated scf accuracy    <       0.01307083 Ry

     total magnetization       =    -0.41 Bohr mag/cell
     absolute magnetization    =     0.42 Bohr mag/cell

     iteration #  7     ecut=    60.00 Ry     beta= 0.70
     Davidson diagonalization with overlap

---- Real-time Memory Report at c_bands before calling an iterative solver
           143 MiB given to the printing process from OS
             0 MiB allocation reported by mallinfo(arena+hblkhd)
           354 MiB available memory on the node where the printing process lives
------------------
     ethr =  8.17E-05,  avg # of iterations =  1.0

     =================== HUBBARD OCCUPATIONS ===================
     ------------------------ ATOM    1 ------------------------
     Tr[ns(  1)] (up, down, total) =   3.47006  3.43740  6.90745
     Atomic magnetic moment for atom   1 =   0.03266
     SPIN  1
     eigenvalues:
       0.558  0.558  0.558  0.899  0.899
     eigenvectors (columns):
      -0.000  0.000 -0.000 -0.367  0.930
      -0.342 -0.273 -0.899 -0.000 -0.000
      -0.586 -0.686  0.431 -0.000 -0.000
       0.000 -0.000  0.000 -0.930 -0.367
       0.735 -0.674 -0.075  0.000  0.000
     occupation matrix ns (before diag.):
       0.899 -0.000 -0.000 -0.000  0.000
      -0.000  0.558 -0.000  0.000  0.000
      -0.000 -0.000  0.558  0.000  0.000
      -0.000  0.000  0.000  0.899 -0.000
       0.000  0.000  0.000 -0.000  0.558
     SPIN  2
     eigenvalues:
       0.497  0.497  0.815  0.815  0.815
     eigenvectors (columns):
       0.474  0.881  0.000  0.000 -0.000
      -0.000  0.000 -0.335  0.270  0.903
      -0.000  0.000 -0.564  0.710 -0.421
       0.881 -0.474 -0.000 -0.000  0.000
       0.000 -0.000  0.755  0.651  0.085
     occupation matrix ns (before diag.):
       0.497 -0.000 -0.000 -0.000  0.000
      -0.000  0.815 -0.000  0.000  0.000
      -0.000 -0.000  0.815  0.000  0.000
      -0.000  0.000  0.000  0.497 -0.000
       0.000  0.000  0.000 -0.000  0.815

     Number of occupied Hubbard levels =    6.9075

     HUBBARD ENERGY =    0.0000  (Ry)

     total cpu time spent up to now is        5.7 secs

     total energy              =    -249.70053414 Ry
     estimated scf accuracy    <       0.01058455 Ry

     total magnetization       =     0.02 Bohr mag/cell
     absolute magnetization    =     0.73 Bohr mag/cell

     iteration #  8     ecut=    60.00 Ry     beta= 0.70
     Davidson diagonalization with overlap

---- Real-time Memory Report at c_bands before calling an iterative solver
           145 MiB given to the printing process from OS
             0 MiB allocation reported by mallinfo(arena+hblkhd)
           352 MiB available memory on the node where the printing process lives
------------------
     ethr =  6.62E-05,  avg # of iterations =  1.0

     =================== HUBBARD OCCUPATIONS ===================
     ------------------------ ATOM    1 ------------------------
     Tr[ns(  1)] (up, down, total) =   3.57332  3.31637  6.88969
     Atomic magnetic moment for atom   1 =   0.25696
     SPIN  1
     eigenvalues:
       0.709  0.709  0.709  0.723  0.723
     eigenvectors (columns):
      -0.000 -0.000  0.000 -0.233  0.972
      -0.335  0.299  0.894 -0.000 -0.000
      -0.567  0.694 -0.445 -0.000 -0.000
       0.000  0.000 -0.000 -0.972 -0.233
       0.753  0.655  0.063  0.000  0.000
     occupation matrix ns (before diag.):
       0.723 -0.000 -0.000 -0.000  0.000
      -0.000  0.709 -0.000  0.000  0.000
      -0.000 -0.000  0.709  0.000  0.000
      -0.000  0.000  0.000  0.723 -0.000
       0.000  0.000  0.000 -0.000  0.709
     SPIN  2
     eigenvalues:
       0.656  0.656  0.656  0.675  0.675
     eigenvectors (columns):
      -0.000 -0.000  0.000 -0.489  0.872
      -0.344  0.391  0.853 -0.000 -0.000
      -0.553  0.650 -0.521 -0.000 -0.000
       0.000  0.000 -0.000 -0.872 -0.489
       0.759  0.651  0.008  0.000  0.000
     occupation matrix ns (before diag.):
       0.675 -0.000 -0.000 -0.000  0.000
      -0.000  0.656 -0.000  0.000  0.000
      -0.000 -0.000  0.656  0.000  0.000
      -0.000  0.000  0.000  0.675 -0.000
       0.000  0.000  0.000 -0.000  0.656

     Number of occupied Hubbard levels =    6.8897

     HUBBARD ENERGY =    0.0000  (Ry)

     total cpu time spent up to now is        6.2 secs

     total energy              =    -249.70250303 Ry
     estimated scf accuracy    <       0.00215060 Ry

     total magnetization       =     0.26 Bohr mag/cell
     absolute magnetization    =     0.26 Bohr mag/cell

     iteration #  9     ecut=    60.00 Ry     beta= 0.70
     Davidson diagonalization with overlap

---- Real-time Memory Report at c_bands before calling an iterative solver
           148 MiB given to the printing process from OS
             0 MiB allocation reported by mallinfo(arena+hblkhd)
           348 MiB available memory on the node where the printing process lives
------------------
     ethr =  1.34E-05,  avg # of iterations =  2.0

     =================== HUBBARD OCCUPATIONS ===================
     ------------------------ ATOM    1 ------------------------
     Tr[ns(  1)] (up, down, total) =   3.40119  3.48516  6.88635
     Atomic magnetic moment for atom   1 =  -0.08397
     SPIN  1
     eigenvalues:
       0.670  0.670  0.670  0.695  0.695
     eigenvectors (columns):
      -0.000 -0.000  0.000 -0.344  0.939
      -0.338  0.233  0.912 -0.000 -0.000
      -0.578  0.713 -0.397 -0.000 -0.000
       0.000  0.000 -0.000 -0.939 -0.344
       0.742  0.661  0.106  0.000  0.000
     occupation matrix ns (before diag.):
       0.695 -0.000 -0.000 -0.000  0.000
      -0.000  0.670 -0.000  0.000  0.000
      -0.000 -0.000  0.670  0.000  0.000
      -0.000  0.000  0.000  0.695 -0.000
       0.000  0.000  0.000 -0.000  0.670
     SPIN  2
     eigenvalues:
       0.695  0.695  0.695  0.700  0.700
     eigenvectors (columns):
      -0.000 -0.000  0.000 -0.671  0.742
      -0.342  0.241  0.908 -0.000 -0.000
      -0.583  0.704 -0.406 -0.000 -0.000
       0.000  0.000 -0.000 -0.742 -0.671
       0.737  0.668  0.100  0.000  0.000
     occupation matrix ns (before diag.):
       0.700 -0.000 -0.000 -0.000  0.000
      -0.000  0.695 -0.000  0.000  0.000
      -0.000 -0.000  0.695  0.000  0.000
      -0.000  0.000  0.000  0.700 -0.000
       0.000  0.000  0.000 -0.000  0.695

     Number of occupied Hubbard levels =    6.8864

     HUBBARD ENERGY =    0.0000  (Ry)

     total cpu time spent up to now is        6.7 secs

     total energy              =    -249.70252050 Ry
     estimated scf accuracy    <       0.00045187 Ry

     total magnetization       =    -0.09 Bohr mag/cell
     absolute magnetization    =     0.09 Bohr mag/cell

     iteration # 10     ecut=    60.00 Ry     beta= 0.70
     Davidson diagonalization with overlap

---- Real-time Memory Report at c_bands before calling an iterative solver
           150 MiB given to the printing process from OS
             0 MiB allocation reported by mallinfo(arena+hblkhd)
           345 MiB available memory on the node where the printing process lives
------------------
     ethr =  2.82E-06,  avg # of iterations =  1.0

     =================== HUBBARD OCCUPATIONS ===================
     ------------------------ ATOM    1 ------------------------
     Tr[ns(  1)] (up, down, total) =   3.49825  3.39053  6.88878
     Atomic magnetic moment for atom   1 =   0.10772
     SPIN  1
     eigenvalues:
       0.697  0.697  0.697  0.703  0.703
     eigenvectors (columns):
      -0.000 -0.000  0.000 -0.367  0.930
      -0.336  0.281  0.899 -0.000 -0.000
      -0.564  0.705 -0.431 -0.000 -0.000
       0.000  0.000 -0.000 -0.930 -0.367
       0.754  0.652  0.078  0.000  0.000
     occupation matrix ns (before diag.):
       0.703 -0.000 -0.000 -0.000  0.000
      -0.000  0.697 -0.000  0.000  0.000
      -0.000 -0.000  0.697  0.000  0.000
      -0.000  0.000  0.000  0.703 -0.000
       0.000  0.000  0.000 -0.000  0.697
     SPIN  2
     eigenvalues:
       0.674  0.674  0.674  0.684  0.684
     eigenvectors (columns):
      -0.000 -0.000  0.000 -0.427  0.904
      -0.334  0.265  0.905 -0.000 -0.000
      -0.572  0.706 -0.418 -0.000 -0.000
       0.000  0.000 -0.000 -0.904 -0.427
       0.749  0.657  0.084  0.000  0.000
     occupation matrix ns (before diag.):
       0.684 -0.000 -0.000 -0.000  0.000
      -0.000  0.674 -0.000  0.000  0.000
      -0.000 -0.000  0.674  0.000  0.000
      -0.000  0.000  0.000  0.684 -0.000
       0.000  0.000  0.000 -0.000  0.674

     Number of occupied Hubbard levels =    6.8888

     HUBBARD ENERGY =    0.0000  (Ry)

     total cpu time spent up to now is        7.2 secs

     total energy              =    -249.70255240 Ry
     estimated scf accuracy    <       0.00026819 Ry

     total magnetization       =     0.11 Bohr mag/cell
     absolute magnetization    =     0.11 Bohr mag/cell

     iteration # 11     ecut=    60.00 Ry     beta= 0.70
     Davidson diagonalization with overlap

---- Real-time Memory Report at c_bands before calling an iterative solver
           150 MiB given to the printing process from OS
             0 MiB allocation reported by mallinfo(arena+hblkhd)
           345 MiB available memory on the node where the printing process lives
------------------
     ethr =  1.68E-06,  avg # of iterations =  1.0

     =================== HUBBARD OCCUPATIONS ===================
     ------------------------ ATOM    1 ------------------------
     Tr[ns(  1)] (up, down, total) =   3.46590  3.42646  6.89236
     Atomic magnetic moment for atom   1 =   0.03945
     SPIN  1
     eigenvalues:
       0.691  0.691  0.691  0.696  0.696
     eigenvectors (columns):
      -0.000 -0.000  0.000 -0.542  0.840
      -0.343  0.297  0.891 -0.000 -0.000
      -0.568  0.691 -0.448 -0.000 -0.000
       0.000  0.000 -0.000 -0.840 -0.542
       0.749  0.660  0.068  0.000  0.000
     occupation matrix ns (before diag.):
       0.696 -0.000 -0.000 -0.000  0.000
      -0.000  0.691 -0.000  0.000  0.000
      -0.000 -0.000  0.691  0.000  0.000
      -0.000  0.000  0.000  0.696 -0.000
       0.000  0.000  0.000 -0.000  0.691
     SPIN  2
     eigenvalues:
       0.684  0.684  0.684  0.688  0.688
     eigenvectors (columns):
      -0.000  0.000 -0.000 -0.395  0.919
      -0.364 -0.414 -0.834 -0.000 -0.000
      -0.557 -0.621  0.551 -0.000 -0.000
       0.000 -0.000  0.000 -0.919 -0.395
       0.746 -0.666  0.005  0.000  0.000
     occupation matrix ns (before diag.):
       0.688 -0.000 -0.000 -0.000  0.000
      -0.000  0.684 -0.000  0.000  0.000
      -0.000 -0.000  0.684  0.000  0.000
      -0.000  0.000  0.000  0.688 -0.000
       0.000  0.000  0.000 -0.000  0.684

     Number of occupied Hubbard levels =    6.8924

     HUBBARD ENERGY =    0.0000  (Ry)

     total cpu time spent up to now is        7.7 secs

     total energy              =    -249.70255587 Ry
     estimated scf accuracy    <       0.00004426 Ry

     total magnetization       =     0.04 Bohr mag/cell
     absolute magnetization    =     0.04 Bohr mag/cell

     iteration # 12     ecut=    60.00 Ry     beta= 0.70
     Davidson diagonalization with overlap

---- Real-time Memory Report at c_bands before calling an iterative solver
           150 MiB given to the printing process from OS
             0 MiB allocation reported by mallinfo(arena+hblkhd)
           372 MiB available memory on the node where the printing process lives
------------------
     ethr =  2.77E-07,  avg # of iterations =  1.0

     =================== HUBBARD OCCUPATIONS ===================
     ------------------------ ATOM    1 ------------------------
     Tr[ns(  1)] (up, down, total) =   3.46077  3.43228  6.89305
     Atomic magnetic moment for atom   1 =   0.02848
     SPIN  1
     eigenvalues:
       0.691  0.691  0.691  0.694  0.694
     eigenvectors (columns):
      -0.000 -0.000  0.000 -0.390  0.921
      -0.335  0.210  0.919 -0.000 -0.000
      -0.604  0.700 -0.380 -0.000 -0.000
       0.000  0.000 -0.000 -0.921 -0.390
       0.723  0.682  0.108  0.000  0.000
     occupation matrix ns (before diag.):
       0.694 -0.000 -0.000 -0.000  0.000
      -0.000  0.691 -0.000  0.000  0.000
      -0.000 -0.000  0.691  0.000  0.000
      -0.000  0.000  0.000  0.694 -0.000
       0.000  0.000  0.000 -0.000  0.691
     SPIN  2
     eigenvalues:
       0.685  0.685  0.685  0.689  0.689
     eigenvectors (columns):
      -0.000 -0.000  0.000 -0.682  0.731
      -0.335  0.397  0.855 -0.000 -0.000
      -0.538  0.664 -0.519 -0.000 -0.000
       0.000  0.000 -0.000 -0.731 -0.682
       0.774  0.634  0.008  0.000  0.000
     occupation matrix ns (before diag.):
       0.689 -0.000 -0.000 -0.000  0.000
      -0.000  0.685 -0.000  0.000  0.000
      -0.000 -0.000  0.685  0.000  0.000
      -0.000  0.000  0.000  0.689 -0.000
       0.000  0.000  0.000 -0.000  0.685

     Number of occupied Hubbard levels =    6.8931

     HUBBARD ENERGY =    0.0000  (Ry)

     total cpu time spent up to now is        8.2 secs

     total energy              =    -249.70255442 Ry
     estimated scf accuracy    <       0.00002012 Ry

     total magnetization       =     0.03 Bohr mag/cell
     absolute magnetization    =     0.03 Bohr mag/cell

     iteration # 13     ecut=    60.00 Ry     beta= 0.70
     Davidson diagonalization with overlap

---- Real-time Memory Report at c_bands before calling an iterative solver
           150 MiB given to the printing process from OS
             0 MiB allocation reported by mallinfo(arena+hblkhd)
           367 MiB available memory on the node where the printing process lives
------------------
     ethr =  1.26E-07,  avg # of iterations =  1.0

     =================== HUBBARD OCCUPATIONS ===================
     ------------------------ ATOM    1 ------------------------
     Tr[ns(  1)] (up, down, total) =   3.44864  3.44635  6.89498
     Atomic magnetic moment for atom   1 =   0.00229
     SPIN  1
     eigenvalues:
       0.690  0.690  0.690  0.690  0.690
     eigenvectors (columns):
      -0.000 -0.000  0.000 -0.403  0.915
      -0.333  0.236  0.913 -0.000 -0.000
      -0.574  0.717 -0.395 -0.000 -0.000
       0.000  0.000 -0.000 -0.915 -0.403
       0.748  0.656  0.104  0.000  0.000
     occupation matrix ns (before diag.):
       0.690 -0.000 -0.000 -0.000  0.000
      -0.000  0.690 -0.000  0.000  0.000
      -0.000 -0.000  0.690  0.000  0.000
      -0.000  0.000  0.000  0.690 -0.000
       0.000  0.000  0.000 -0.000  0.690
     SPIN  2
     eigenvalues:
       0.689  0.689  0.689  0.690  0.690
     eigenvectors (columns):
      -0.000 -0.000  0.000 -0.386  0.922
      -0.348  0.384  0.855 -0.000 -0.000
      -0.561  0.646 -0.518 -0.000 -0.000
       0.000  0.000 -0.000 -0.922 -0.386
       0.751  0.660  0.010  0.000  0.000
     occupation matrix ns (before diag.):
       0.690 -0.000 -0.000 -0.000  0.000
      -0.000  0.689 -0.000  0.000  0.000
      -0.000 -0.000  0.689  0.000  0.000
      -0.000  0.000  0.000  0.690 -0.000
       0.000  0.000  0.000 -0.000  0.689

     Number of occupied Hubbard levels =    6.8950

     HUBBARD ENERGY =    0.0000  (Ry)

     Magnetic moment per site  (integrated on atomic sphere of radius R)
     atom   1 (R=0.413)  charge= 15.6851  magn=  0.0022

     total cpu time spent up to now is        8.7 secs

     End of self-consistent calculation

 ------ SPIN UP ------------


          k = 0.0000 0.0000 0.0000 (  5017 PWs)   bands (ev):

   -87.2102 -53.5906 -53.5906 -53.5906  -2.9406  -1.6637  -1.6637  -1.6637
    -1.6095  -1.6095   4.6342   4.6342

     occupation numbers 
     1.0000   1.0000   1.0000   1.0000   1.0000   0.8874   0.8874   0.8874
     0.6119   0.6119   0.0000   0.0000

          k = 0.0000 0.2887 0.2887 (  5007 PWs)   bands (ev):

   -87.2099 -53.5910 -53.5897 -53.5888  -2.1476  -1.7014  -1.6185  -1.6010
    -1.5954  -1.5824   1.3843   3.5725

     occupation numbers 
     1.0000   1.0000   1.0000   1.0000   1.0000   1.0155   0.6616   0.5651
     0.5339   0.4637   0.0000   0.0000

          k = 0.2887 0.2887 0.5774 (  5006 PWs)   bands (ev):

   -87.2098 -53.5908 -53.5892 -53.5892  -1.7445  -1.6423  -1.6423  -1.5963
    -1.5963  -1.2142   1.1838   1.1838

     occupation numbers 
     1.0000   1.0000   1.0000   1.0000   1.0785   0.7878   0.7878   0.5392
     0.5392   0.0000   0.0000   0.0000

          k = 0.5774-0.0000-0.0000 (  5018 PWs)   bands (ev):

   -87.2102 -53.5908 -53.5908 -53.5901  -1.6954  -1.6927  -1.6122  -1.6122
    -1.5870  -1.3061   1.7442   2.4055

     occupation numbers 
     1.0000   1.0000   1.0000   1.0000   0.9997   0.9920   0.6271   0.6271
     0.4882   0.0004   0.0000   0.0000

 ------ SPIN DOWN ----------


          k = 0.0000 0.0000 0.0000 (  5017 PWs)   bands (ev):

   -87.2100 -53.5904 -53.5904 -53.5904  -2.9408  -1.6635  -1.6635  -1.6635
    -1.6095  -1.6095   4.6339   4.6339

     occupation numbers 
     1.0000   1.0000   1.0000   1.0000   1.0000   0.8867   0.8867   0.8867
     0.6118   0.6118   0.0000   0.0000

          k = 0.0000 0.2887 0.2887 (  5007 PWs)   bands (ev):

   -87.2097 -53.5908 -53.5895 -53.5886  -2.1479  -1.7013  -1.6184  -1.6010
    -1.5953  -1.5822   1.3840   3.5723

     occupation numbers 
     1.0000   1.0000   1.0000   1.0000   1.0000   1.0151   0.6614   0.5649
     0.5333   0.4628   0.0000   0.0000

          k = 0.2887 0.2887 0.5774 (  5006 PWs)   bands (ev):

   -87.2096 -53.5906 -53.5890 -53.5890  -1.7444  -1.6422  -1.6422  -1.5962
    -1.5962  -1.2144   1.1835   1.1835

     occupation numbers 
     1.0000   1.0000   1.0000   1.0000   1.0785   0.7874   0.7874   0.5387
     0.5387   0.0000   0.0000   0.0000

          k = 0.5774-0.0000-0.0000 (  5018 PWs)   bands (ev):

   -87.2099 -53.5906 -53.5906 -53.5899  -1.6954  -1.6927  -1.6121  -1.6121
    -1.5868  -1.3063   1.7440   2.4053

     occupation numbers 
     1.0000   1.0000   1.0000   1.0000   0.9997   0.9920   0.6262   0.6262
     0.4873   0.0005   0.0000   0.0000

     the Fermi energy is    -1.5702 ev

!    total energy              =    -249.70255562 Ry
     estimated scf accuracy    <       0.00000010 Ry
     smearing contrib. (-TS)   =      -0.00769631 Ry
     internal energy E=F+TS    =    -249.69485931 Ry

     The total energy is F=E-TS. E is the sum of the following terms:
     one-electron contribution =    -255.71940276 Ry
     hartree contribution      =     126.53641378 Ry
     xc contribution           =     -34.62265498 Ry
     ewald contribution        =     -85.88921614 Ry
     Hubbard energy            =       0.00000079 Ry

     total magnetization       =     0.00 Bohr mag/cell
     absolute magnetization    =     0.00 Bohr mag/cell

     convergence has been achieved in  13 iterations

     Forces acting on atoms (cartesian axes, Ry/au):

     atom    1 type  1   force =     0.00000000    0.00000000    0.00000000
     The non-local contrib.  to forces
     atom    1 type  1   force =    -0.00000000   -0.00000000    0.00000000
     The ionic contribution  to forces
     atom    1 type  1   force =    -0.00000000   -0.00000000   -0.00000000
     The local contribution  to forces
     atom    1 type  1   force =     0.00000000    0.00000000    0.00000000
     The core correction contribution to forces
     atom    1 type  1   force =     0.00000000    0.00000000    0.00000000
     The Hubbard contrib.    to forces
     atom    1 type  1   force =     0.00000000    0.00000000    0.00000000
     The SCF correction term to forces
     atom    1 type  1   force =     0.00000000    0.00000000    0.00000000

     Total force =     0.000000     Total SCF correction =     0.000000


     Computing stress (Cartesian axis) and pressure

          total   stress  (Ry/bohr**3)                   (kbar)     P=     -274.94
  -0.00186900  -0.00000000  -0.00000000         -274.94       -0.00       -0.00
  -0.00000000  -0.00186900  -0.00000000           -0.00     -274.94       -0.00
  -0.00000000  -0.00000000  -0.00186900           -0.00       -0.00     -274.94

     kinetic stress (kbar)  17752.47      0.00      0.00
                                0.00  17752.47      0.00
                                0.00      0.00  17752.47

     local   stress (kbar) -16072.65      0.00      0.00
                                0.00 -16072.65      0.00
                                0.00      0.00 -16072.65

     nonloc. stress (kbar)  -2785.57      0.00      0.00
                                0.00  -2785.57      0.00
                                0.00      0.00  -2785.57

     hartree stress (kbar)   9723.40     -0.00     -0.00
                               -0.00   9723.40     -0.00
                               -0.00     -0.00   9723.40

     exc-cor stress (kbar)    -44.27      0.00      0.00
                                0.00    -44.27      0.00
                                0.00      0.00    -44.27

     corecor stress (kbar)  -2248.36      0.00      0.00
                                0.00  -2248.36      0.00
                                0.00      0.00  -2248.36

     ewald   stress (kbar)  -6599.96     -0.00     -0.00
                               -0.00  -6599.96     -0.00
                               -0.00     -0.00  -6599.96

     hubbard stress (kbar)     -0.00     -0.00     -0.00
                               -0.00     -0.00     -0.00
                               -0.00     -0.00     -0.00

     DFT-D   stress (kbar)      0.00      0.00      0.00
                                0.00      0.00      0.00
                                0.00      0.00      0.00

     XDM     stress (kbar)      0.00      0.00      0.00
                                0.00      0.00      0.00
                                0.00      0.00      0.00

     dft-nl  stress (kbar)      0.00      0.00      0.00
                                0.00      0.00      0.00
                                0.00      0.00      0.00

     TS-vdW  stress (kbar)      0.00      0.00      0.00
                                0.00      0.00      0.00
                                0.00      0.00      0.00

     MDB     stress (kbar)      0.00      0.00      0.00
                                0.00      0.00      0.00
                                0.00      0.00      0.00

     3D-RISM stress (kbar)      0.00      0.00      0.00
                                0.00      0.00      0.00
                                0.00      0.00      0.00


     Writing all to output data dir ./out/aiida.save/ :
     XML data file, charge density, pseudopotentials, collected wavefunctions

     init_run     :      1.09s CPU      1.11s WALL (       1 calls)
     electrons    :      7.60s CPU      7.61s WALL (       1 calls)
     forces       :      0.20s CPU      0.21s WALL (       1 calls)
     stress       :      0.80s CPU      0.83s WALL (       1 calls)

     Called by init_run:
     wfcinit      :      0.35s CPU      0.35s WALL (       1 calls)
     wfcinit:atom :      0.00s CPU      0.00s WALL (       8 calls)
     wfcinit:wfcr :      0.31s CPU      0.31s WALL (       8 calls)
     potinit      :      0.28s CPU      0.29s WALL (       1 calls)
     hinit0       :      0.43s CPU      0.44s WALL (       1 calls)

     Called by electrons:
     c_bands      :      5.37s CPU      5.37s WALL (      13 calls)
     sum_band     :      1.16s CPU      1.17s WALL (      13 calls)
     v_of_rho     :      0.68s CPU      0.69s WALL (      14 calls)
     v_h          :      0.06s CPU      0.06s WALL (      14 calls)
     v_xc         :      0.71s CPU      0.73s WALL (      16 calls)
     mix_rho      :      0.26s CPU      0.26s WALL (      13 calls)

     Called by c_bands:
     init_us_2    :      0.20s CPU      0.20s WALL (     256 calls)
     cegterg      :      5.10s CPU      5.10s WALL (     104 calls)

     Called by sum_band:
     sum_band:wei :      0.00s CPU      0.00s WALL (      13 calls)
     sum_band:loo :      0.94s CPU      0.94s WALL (      13 calls)
     sum_band:buf :      0.01s CPU      0.01s WALL (     104 calls)
     sum_band:ini :      0.09s CPU      0.09s WALL (     104 calls)

     Called by *egterg:
     cdiaghg      :      0.03s CPU      0.03s WALL (     355 calls)
     cegterg:over :      0.30s CPU      0.30s WALL (     251 calls)
     cegterg:upda :      0.15s CPU      0.15s WALL (     251 calls)
     cegterg:last :      0.20s CPU      0.20s WALL (     156 calls)
     h_psi        :      4.54s CPU      4.54s WALL (     363 calls)
     g_psi        :      0.02s CPU      0.02s WALL (     251 calls)

     Called by h_psi:
     h_psi:calbec :      0.23s CPU      0.23s WALL (     363 calls)
     vloc_psi     :      3.99s CPU      3.99s WALL (     363 calls)
     add_vuspsi   :      0.18s CPU      0.18s WALL (     363 calls)
     vhpsi        :      0.12s CPU      0.12s WALL (     363 calls)

     General routines
     calbec       :      0.40s CPU      0.41s WALL (     998 calls)
     fft          :      0.61s CPU      0.62s WALL (     128 calls)
     ffts         :      0.23s CPU      0.23s WALL (      54 calls)
     fftw         :      3.72s CPU      3.72s WALL (    7308 calls)
     interpolate  :      0.31s CPU      0.31s WALL (      28 calls)

     Parallel routines

     Hubbard U routines
     new_ns       :      0.04s CPU      0.04s WALL (      13 calls)
     vhpsi        :      0.12s CPU      0.12s WALL (     363 calls)
     force_hub    :      0.10s CPU      0.11s WALL (       1 calls)
                                        0.00s GPU  (       1 calls)
     stres_hub    :      0.35s CPU      0.35s WALL (       1 calls)
                                        0.00s GPU  (       1 calls)

     PWSCF        :      9.73s CPU      9.81s WALL


   This run was terminated on:   1: 7: 3  28Jun2024            

=------------------------------------------------------------------------------=
   JOB DONE.
=------------------------------------------------------------------------------=
