
     Program PWSCF v.7.3.1 starts on  1Jul2024 at 10: 1:20 

     This program is part of the open-source Quantum ESPRESSO suite
     for quantum simulation of materials; please cite
         "P. Giannozzi et al., J. Phys.:Condens. Matter 21 395502 (2009);
         "P. Giannozzi et al., J. Phys.:Condens. Matter 29 465901 (2017);
         "P. Giannozzi et al., J. Chem. Phys. 152 154105 (2020);
          URL http://www.quantum-espresso.org", 
     in publications or presentations arising from this work. More details at
     http://www.quantum-espresso.org/quote

     Parallel version (MPI), running on     1 processors

     MPI processes distributed on     1 nodes
     281 MiB available memory on the printing compute node when the environment starts

     Reading input from Fe_no_mag.in

     Current dimensions of program PWSCF are:
     Max number of different atomic species (ntypx) = 10
     Max number of k-points (npk) =  40000
     Max angular momentum in pseudopotentials (lmaxx) =  4

     IMPORTANT: XC functional enforced from input :
     Exchange-correlation= SLA+PW
                           (   1   4   0   0   0   0   0)
     Any further DFT definition will be discarded
     Please, verify this is what you really want

     Message from routine volume:
     axis vectors are left-handed

     Subspace diagonalization in iterative solution of the eigenvalue problem:
     a serial algorithm will be used


     G-vector sticks info
     --------------------
     sticks:   dense  smooth     PW     G-vecs:    dense   smooth      PW
     Sum        1595    1595    471                40143    40143    6459

     Using Slab Decomposition



     bravais-lattice index     =            0
     lattice parameter (alat)  =       9.3938  a.u.
     unit-cell volume          =     638.1220 (a.u.)^3
     number of atoms/cell      =            1
     number of atomic types    =            1
     number of electrons       =        16.00
     number of Kohn-Sham states=           12
     kinetic-energy cutoff     =      60.0000  Ry
     charge density cutoff     =     240.0000  Ry
     scf convergence threshold =      1.0E-12
     mixing beta               =       0.7000
     number of iterations used =            8  plain     mixing
     Exchange-correlation= SLA+PW
                           (   1   4   0   0   0   0   0)

     celldm(1)=   9.393812  celldm(2)=   0.000000  celldm(3)=   0.000000
     celldm(4)=   0.000000  celldm(5)=   0.000000  celldm(6)=   0.000000

     crystal axes: (cart. coord. in units of alat)
               a(1) = (   0.577350   0.577350  -0.577350 )  
               a(2) = (   0.577350  -0.577350   0.577350 )  
               a(3) = (  -0.577350   0.577350   0.577350 )  

     reciprocal axes: (cart. coord. in units 2 pi/alat)
               b(1) = (  0.866025  0.866025 -0.000000 )  
               b(2) = (  0.866025 -0.000000  0.866025 )  
               b(3) = ( -0.000000  0.866025  0.866025 )  


     PseudoPot. # 1 for Fe read from file:
     ./pseudo/Fe.upf
     MD5 check sum: b1fb9d3cb1d156aba92c681262384fac
     Pseudo is Norm-conserving + core correction, Zval = 16.0
     Generated using ONCVPSP code by D. R. Hamann
     Using radial grid of 1408 points,  6 beta functions with: 
                l(1) =   0
                l(2) =   0
                l(3) =   1
                l(4) =   1
                l(5) =   2
                l(6) =   2

     atomic species   valence    mass     pseudopotential
     Fe               16.00    55.84500     Fe( 1.00)

     No symmetry found


                                    s                        frac. trans.

      isym =  1     identity                                     

 cryst.   s( 1) = (     1          0          0      )
                  (     0          1          0      )
                  (     0          0          1      )

 cart.    s( 1) = (  1.0000000  0.0000000  0.0000000 )
                  (  0.0000000  1.0000000  0.0000000 )
                  (  0.0000000  0.0000000  1.0000000 )


   Cartesian axes

     site n.     atom                  positions (alat units)
         1        Fe     tau(   1) = (   0.0000000   0.0000000   0.0000000  )

   Crystallographic axes

     site n.     atom                  positions (cryst. coord.)
         1        Fe     tau(   1) = (  0.0000000  0.0000000  0.0000000  )

     number of k points=    27  Gaussian smearing, width (Ry)=  0.0100
                       cart. coord. in units 2pi/alat
        k(    1) = (   0.0000000   0.0000000   0.0000000), wk =   0.0740741
        k(    2) = (   0.0000000   0.2886751   0.2886751), wk =   0.0740741
        k(    3) = (   0.0000000  -0.2886751  -0.2886751), wk =   0.0740741
        k(    4) = (   0.2886751   0.0000000   0.2886751), wk =   0.0740741
        k(    5) = (   0.2886751   0.2886751   0.5773503), wk =   0.0740741
        k(    6) = (   0.2886751  -0.2886751  -0.0000000), wk =   0.0740741
        k(    7) = (  -0.2886751   0.0000000  -0.2886751), wk =   0.0740741
        k(    8) = (  -0.2886751   0.2886751  -0.0000000), wk =   0.0740741
        k(    9) = (  -0.2886751  -0.2886751  -0.5773503), wk =   0.0740741
        k(   10) = (   0.2886751   0.2886751   0.0000000), wk =   0.0740741
        k(   11) = (   0.2886751   0.5773503   0.2886751), wk =   0.0740741
        k(   12) = (   0.2886751  -0.0000000  -0.2886751), wk =   0.0740741
        k(   13) = (   0.5773503   0.2886751   0.2886751), wk =   0.0740741
        k(   14) = (   0.5773503   0.5773503   0.5773503), wk =   0.0740741
        k(   15) = (   0.5773503  -0.0000000  -0.0000000), wk =   0.0740741
        k(   16) = (  -0.0000000   0.2886751  -0.2886751), wk =   0.0740741
        k(   17) = (  -0.0000000   0.5773503  -0.0000000), wk =   0.0740741
        k(   18) = (  -0.0000000  -0.0000000  -0.5773503), wk =   0.0740741
        k(   19) = (  -0.2886751  -0.2886751   0.0000000), wk =   0.0740741
        k(   20) = (  -0.2886751  -0.0000000   0.2886751), wk =   0.0740741
        k(   21) = (  -0.2886751  -0.5773503  -0.2886751), wk =   0.0740741
        k(   22) = (  -0.0000000  -0.2886751   0.2886751), wk =   0.0740741
        k(   23) = (  -0.0000000  -0.0000000   0.5773503), wk =   0.0740741
        k(   24) = (  -0.0000000  -0.5773503  -0.0000000), wk =   0.0740741
        k(   25) = (  -0.5773503  -0.2886751  -0.2886751), wk =   0.0740741
        k(   26) = (  -0.5773503  -0.0000000  -0.0000000), wk =   0.0740741
        k(   27) = (  -0.5773503  -0.5773503  -0.5773503), wk =   0.0740741

                       cryst. coord.
        k(    1) = (   0.0000000   0.0000000   0.0000000), wk =   0.0740741
        k(    2) = (   0.0000000   0.0000000   0.3333333), wk =   0.0740741
        k(    3) = (   0.0000000   0.0000000  -0.3333333), wk =   0.0740741
        k(    4) = (   0.0000000   0.3333333   0.0000000), wk =   0.0740741
        k(    5) = (   0.0000000   0.3333333   0.3333333), wk =   0.0740741
        k(    6) = (   0.0000000   0.3333333  -0.3333333), wk =   0.0740741
        k(    7) = (   0.0000000  -0.3333333   0.0000000), wk =   0.0740741
        k(    8) = (   0.0000000  -0.3333333   0.3333333), wk =   0.0740741
        k(    9) = (   0.0000000  -0.3333333  -0.3333333), wk =   0.0740741
        k(   10) = (   0.3333333   0.0000000   0.0000000), wk =   0.0740741
        k(   11) = (   0.3333333   0.0000000   0.3333333), wk =   0.0740741
        k(   12) = (   0.3333333   0.0000000  -0.3333333), wk =   0.0740741
        k(   13) = (   0.3333333   0.3333333   0.0000000), wk =   0.0740741
        k(   14) = (   0.3333333   0.3333333   0.3333333), wk =   0.0740741
        k(   15) = (   0.3333333   0.3333333  -0.3333333), wk =   0.0740741
        k(   16) = (   0.3333333  -0.3333333   0.0000000), wk =   0.0740741
        k(   17) = (   0.3333333  -0.3333333   0.3333333), wk =   0.0740741
        k(   18) = (   0.3333333  -0.3333333  -0.3333333), wk =   0.0740741
        k(   19) = (  -0.3333333   0.0000000   0.0000000), wk =   0.0740741
        k(   20) = (  -0.3333333   0.0000000   0.3333333), wk =   0.0740741
        k(   21) = (  -0.3333333   0.0000000  -0.3333333), wk =   0.0740741
        k(   22) = (  -0.3333333   0.3333333   0.0000000), wk =   0.0740741
        k(   23) = (  -0.3333333   0.3333333   0.3333333), wk =   0.0740741
        k(   24) = (  -0.3333333   0.3333333  -0.3333333), wk =   0.0740741
        k(   25) = (  -0.3333333  -0.3333333   0.0000000), wk =   0.0740741
        k(   26) = (  -0.3333333  -0.3333333   0.3333333), wk =   0.0740741
        k(   27) = (  -0.3333333  -0.3333333  -0.3333333), wk =   0.0740741

     Dense  grid:    40143 G-vectors     FFT dimensions: (  48,  48,  48)

     Dynamical RAM for                 wfc:       0.92 MB

     Dynamical RAM for     wfc (w. buffer):      25.68 MB

     Dynamical RAM for           str. fact:       0.61 MB

     Dynamical RAM for           local pot:       0.00 MB

     Dynamical RAM for          nlocal pot:       1.38 MB

     Dynamical RAM for                qrad:       1.24 MB

     Dynamical RAM for          rho,v,vnew:       4.37 MB

     Dynamical RAM for               rhoin:       1.46 MB

     Dynamical RAM for            rho*nmix:       9.80 MB

     Dynamical RAM for           G-vectors:       2.60 MB

     Dynamical RAM for          h,s,v(r/c):       0.03 MB

     Dynamical RAM for          <psi|beta>:       0.00 MB

     Dynamical RAM for                 psi:       1.83 MB

     Dynamical RAM for                hpsi:       1.83 MB

     Dynamical RAM for      wfcinit/wfcrot:       1.84 MB

     Estimated static dynamical RAM per process >      42.78 MB

     Estimated max dynamical RAM per process >      56.28 MB

     Initial potential from superposition of free atoms

     starting charge      15.9997, renormalised to      16.0000
     Starting wfcs are   10 randomized atomic wfcs +    2 random wfcs

     total cpu time spent up to now is        1.0 secs

     Self-consistent Calculation

     iteration #  1     ecut=    60.00 Ry     beta= 0.70
     Davidson diagonalization with overlap

---- Real-time Memory Report at c_bands before calling an iterative solver
            68 MiB given to the printing process from OS
             0 MiB allocation reported by mallinfo(arena+hblkhd)
           237 MiB available memory on the node where the printing process lives
------------------
     ethr =  1.00E-02,  avg # of iterations =  7.0

     total cpu time spent up to now is        2.7 secs

     total energy              =    -249.00970620 Ry
     estimated scf accuracy    <       1.09463235 Ry

     iteration #  2     ecut=    60.00 Ry     beta= 0.70
     Davidson diagonalization with overlap

---- Real-time Memory Report at c_bands before calling an iterative solver
            81 MiB given to the printing process from OS
             0 MiB allocation reported by mallinfo(arena+hblkhd)
           226 MiB available memory on the node where the printing process lives
------------------
     ethr =  6.84E-03,  avg # of iterations =  5.5

     total cpu time spent up to now is        4.8 secs

     total energy              =    -247.86346319 Ry
     estimated scf accuracy    <      22.53041249 Ry

     iteration #  3     ecut=    60.00 Ry     beta= 0.70
     Davidson diagonalization with overlap

---- Real-time Memory Report at c_bands before calling an iterative solver
            82 MiB given to the printing process from OS
             0 MiB allocation reported by mallinfo(arena+hblkhd)
           224 MiB available memory on the node where the printing process lives
------------------
     ethr =  6.84E-03,  avg # of iterations =  3.8

     total cpu time spent up to now is        6.8 secs

     total energy              =    -249.69561740 Ry
     estimated scf accuracy    <       0.02155861 Ry

     iteration #  4     ecut=    60.00 Ry     beta= 0.70
     Davidson diagonalization with overlap

---- Real-time Memory Report at c_bands before calling an iterative solver
            83 MiB given to the printing process from OS
             0 MiB allocation reported by mallinfo(arena+hblkhd)
           221 MiB available memory on the node where the printing process lives
------------------
     ethr =  1.35E-04,  avg # of iterations =  5.9

     total cpu time spent up to now is        8.7 secs

     total energy              =    -249.71376801 Ry
     estimated scf accuracy    <       0.02616157 Ry

     iteration #  5     ecut=    60.00 Ry     beta= 0.70
     Davidson diagonalization with overlap

---- Real-time Memory Report at c_bands before calling an iterative solver
            85 MiB given to the printing process from OS
             0 MiB allocation reported by mallinfo(arena+hblkhd)
           218 MiB available memory on the node where the printing process lives
------------------
     ethr =  1.35E-04,  avg # of iterations =  1.0

     total cpu time spent up to now is       10.0 secs

     total energy              =    -249.71106378 Ry
     estimated scf accuracy    <       0.08051717 Ry

     iteration #  6     ecut=    60.00 Ry     beta= 0.70
     Davidson diagonalization with overlap

---- Real-time Memory Report at c_bands before calling an iterative solver
            86 MiB given to the printing process from OS
             0 MiB allocation reported by mallinfo(arena+hblkhd)
           217 MiB available memory on the node where the printing process lives
------------------
     ethr =  1.35E-04,  avg # of iterations =  1.0

     total cpu time spent up to now is       11.2 secs

     total energy              =    -249.71453277 Ry
     estimated scf accuracy    <       0.00572901 Ry

     iteration #  7     ecut=    60.00 Ry     beta= 0.70
     Davidson diagonalization with overlap

---- Real-time Memory Report at c_bands before calling an iterative solver
            87 MiB given to the printing process from OS
             0 MiB allocation reported by mallinfo(arena+hblkhd)
           216 MiB available memory on the node where the printing process lives
------------------
     ethr =  3.58E-05,  avg # of iterations =  1.5

     total cpu time spent up to now is       12.4 secs

     total energy              =    -249.71492550 Ry
     estimated scf accuracy    <       0.00162473 Ry

     iteration #  8     ecut=    60.00 Ry     beta= 0.70
     Davidson diagonalization with overlap

---- Real-time Memory Report at c_bands before calling an iterative solver
            88 MiB given to the printing process from OS
             0 MiB allocation reported by mallinfo(arena+hblkhd)
           214 MiB available memory on the node where the printing process lives
------------------
     ethr =  1.02E-05,  avg # of iterations =  1.7

     total cpu time spent up to now is       13.7 secs

     total energy              =    -249.71492199 Ry
     estimated scf accuracy    <       0.00055576 Ry

     iteration #  9     ecut=    60.00 Ry     beta= 0.70
     Davidson diagonalization with overlap

---- Real-time Memory Report at c_bands before calling an iterative solver
            89 MiB given to the printing process from OS
             0 MiB allocation reported by mallinfo(arena+hblkhd)
           213 MiB available memory on the node where the printing process lives
------------------
     ethr =  3.47E-06,  avg # of iterations =  1.0

     total cpu time spent up to now is       14.9 secs

     total energy              =    -249.71486036 Ry
     estimated scf accuracy    <       0.00033490 Ry

     iteration # 10     ecut=    60.00 Ry     beta= 0.70
     Davidson diagonalization with overlap

---- Real-time Memory Report at c_bands before calling an iterative solver
            91 MiB given to the printing process from OS
             0 MiB allocation reported by mallinfo(arena+hblkhd)
           211 MiB available memory on the node where the printing process lives
------------------
     ethr =  2.09E-06,  avg # of iterations =  1.0

     total cpu time spent up to now is       16.1 secs

     total energy              =    -249.71485003 Ry
     estimated scf accuracy    <       0.00013379 Ry

     iteration # 11     ecut=    60.00 Ry     beta= 0.70
     Davidson diagonalization with overlap

---- Real-time Memory Report at c_bands before calling an iterative solver
            91 MiB given to the printing process from OS
             0 MiB allocation reported by mallinfo(arena+hblkhd)
           210 MiB available memory on the node where the printing process lives
------------------
     ethr =  8.36E-07,  avg # of iterations =  2.0

     total cpu time spent up to now is       17.5 secs

     total energy              =    -249.71485057 Ry
     estimated scf accuracy    <       0.00007435 Ry

     iteration # 12     ecut=    60.00 Ry     beta= 0.70
     Davidson diagonalization with overlap

---- Real-time Memory Report at c_bands before calling an iterative solver
            91 MiB given to the printing process from OS
             0 MiB allocation reported by mallinfo(arena+hblkhd)
           210 MiB available memory on the node where the printing process lives
------------------
     ethr =  4.65E-07,  avg # of iterations =  1.0

     total cpu time spent up to now is       18.7 secs

     total energy              =    -249.71485449 Ry
     estimated scf accuracy    <       0.00000308 Ry

     iteration # 13     ecut=    60.00 Ry     beta= 0.70
     Davidson diagonalization with overlap

---- Real-time Memory Report at c_bands before calling an iterative solver
            91 MiB given to the printing process from OS
             0 MiB allocation reported by mallinfo(arena+hblkhd)
           210 MiB available memory on the node where the printing process lives
------------------
     ethr =  1.92E-08,  avg # of iterations =  2.0

     total cpu time spent up to now is       20.1 secs

     total energy              =    -249.71485469 Ry
     estimated scf accuracy    <       0.00000422 Ry

     iteration # 14     ecut=    60.00 Ry     beta= 0.70
     Davidson diagonalization with overlap

---- Real-time Memory Report at c_bands before calling an iterative solver
            91 MiB given to the printing process from OS
             0 MiB allocation reported by mallinfo(arena+hblkhd)
           210 MiB available memory on the node where the printing process lives
------------------
     ethr =  1.92E-08,  avg # of iterations =  1.0

     total cpu time spent up to now is       21.3 secs

     total energy              =    -249.71485492 Ry
     estimated scf accuracy    <       0.00000011 Ry

     iteration # 15     ecut=    60.00 Ry     beta= 0.70
     Davidson diagonalization with overlap

---- Real-time Memory Report at c_bands before calling an iterative solver
            91 MiB given to the printing process from OS
             0 MiB allocation reported by mallinfo(arena+hblkhd)
           210 MiB available memory on the node where the printing process lives
------------------
     ethr =  6.65E-10,  avg # of iterations =  1.0

     total cpu time spent up to now is       22.5 secs

     total energy              =    -249.71485492 Ry
     estimated scf accuracy    <       0.00000004 Ry

     iteration # 16     ecut=    60.00 Ry     beta= 0.70
     Davidson diagonalization with overlap

---- Real-time Memory Report at c_bands before calling an iterative solver
            91 MiB given to the printing process from OS
             0 MiB allocation reported by mallinfo(arena+hblkhd)
           210 MiB available memory on the node where the printing process lives
------------------
     ethr =  2.79E-10,  avg # of iterations =  1.0

     total cpu time spent up to now is       23.8 secs

     total energy              =    -249.71485491 Ry
     estimated scf accuracy    <       0.00000022 Ry

     iteration # 17     ecut=    60.00 Ry     beta= 0.70
     Davidson diagonalization with overlap

---- Real-time Memory Report at c_bands before calling an iterative solver
            91 MiB given to the printing process from OS
             0 MiB allocation reported by mallinfo(arena+hblkhd)
           210 MiB available memory on the node where the printing process lives
------------------
     ethr =  2.79E-10,  avg # of iterations =  1.0

     total cpu time spent up to now is       25.0 secs

     total energy              =    -249.71485492 Ry
     estimated scf accuracy    <       0.00000002 Ry

     iteration # 18     ecut=    60.00 Ry     beta= 0.70
     Davidson diagonalization with overlap

---- Real-time Memory Report at c_bands before calling an iterative solver
            91 MiB given to the printing process from OS
             0 MiB allocation reported by mallinfo(arena+hblkhd)
           209 MiB available memory on the node where the printing process lives
------------------
     ethr =  1.38E-10,  avg # of iterations =  1.0

     total cpu time spent up to now is       26.3 secs

     total energy              =    -249.71485492 Ry
     estimated scf accuracy    <       0.00000001 Ry

     iteration # 19     ecut=    60.00 Ry     beta= 0.70
     Davidson diagonalization with overlap

---- Real-time Memory Report at c_bands before calling an iterative solver
            91 MiB given to the printing process from OS
             0 MiB allocation reported by mallinfo(arena+hblkhd)
           209 MiB available memory on the node where the printing process lives
------------------
     ethr =  7.20E-11,  avg # of iterations =  1.0

     total cpu time spent up to now is       27.5 secs

     total energy              =    -249.71485492 Ry
     estimated scf accuracy    <          5.2E-09 Ry

     iteration # 20     ecut=    60.00 Ry     beta= 0.70
     Davidson diagonalization with overlap

---- Real-time Memory Report at c_bands before calling an iterative solver
            91 MiB given to the printing process from OS
             0 MiB allocation reported by mallinfo(arena+hblkhd)
           209 MiB available memory on the node where the printing process lives
------------------
     ethr =  3.24E-11,  avg # of iterations =  1.0

     total cpu time spent up to now is       28.7 secs

     total energy              =    -249.71485492 Ry
     estimated scf accuracy    <          1.8E-09 Ry

     iteration # 21     ecut=    60.00 Ry     beta= 0.70
     Davidson diagonalization with overlap

---- Real-time Memory Report at c_bands before calling an iterative solver
            91 MiB given to the printing process from OS
             0 MiB allocation reported by mallinfo(arena+hblkhd)
           209 MiB available memory on the node where the printing process lives
------------------
     ethr =  1.12E-11,  avg # of iterations =  1.0

     total cpu time spent up to now is       30.0 secs

     total energy              =    -249.71485492 Ry
     estimated scf accuracy    <          1.6E-09 Ry

     iteration # 22     ecut=    60.00 Ry     beta= 0.70
     Davidson diagonalization with overlap

---- Real-time Memory Report at c_bands before calling an iterative solver
            91 MiB given to the printing process from OS
             0 MiB allocation reported by mallinfo(arena+hblkhd)
           207 MiB available memory on the node where the printing process lives
------------------
     ethr =  1.01E-11,  avg # of iterations =  1.0

     total cpu time spent up to now is       31.2 secs

     total energy              =    -249.71485493 Ry
     estimated scf accuracy    <          5.2E-10 Ry

     iteration # 23     ecut=    60.00 Ry     beta= 0.70
     Davidson diagonalization with overlap

---- Real-time Memory Report at c_bands before calling an iterative solver
            91 MiB given to the printing process from OS
             0 MiB allocation reported by mallinfo(arena+hblkhd)
           207 MiB available memory on the node where the printing process lives
------------------
     ethr =  3.24E-12,  avg # of iterations =  1.0

     total cpu time spent up to now is       32.4 secs

     total energy              =    -249.71485493 Ry
     estimated scf accuracy    <          1.7E-11 Ry

     iteration # 24     ecut=    60.00 Ry     beta= 0.70
     Davidson diagonalization with overlap

---- Real-time Memory Report at c_bands before calling an iterative solver
            91 MiB given to the printing process from OS
             0 MiB allocation reported by mallinfo(arena+hblkhd)
           207 MiB available memory on the node where the printing process lives
------------------
     ethr =  1.09E-13,  avg # of iterations =  2.0

     total cpu time spent up to now is       33.7 secs

     total energy              =    -249.71485493 Ry
     estimated scf accuracy    <          6.3E-12 Ry

     iteration # 25     ecut=    60.00 Ry     beta= 0.70
     Davidson diagonalization with overlap

---- Real-time Memory Report at c_bands before calling an iterative solver
            91 MiB given to the printing process from OS
             0 MiB allocation reported by mallinfo(arena+hblkhd)
           206 MiB available memory on the node where the printing process lives
------------------
     ethr =  1.00E-13,  avg # of iterations =  1.0

     total cpu time spent up to now is       34.9 secs

     total energy              =    -249.71485493 Ry
     estimated scf accuracy    <          2.6E-11 Ry

     iteration # 26     ecut=    60.00 Ry     beta= 0.70
     Davidson diagonalization with overlap

---- Real-time Memory Report at c_bands before calling an iterative solver
            91 MiB given to the printing process from OS
             0 MiB allocation reported by mallinfo(arena+hblkhd)
           206 MiB available memory on the node where the printing process lives
------------------
     ethr =  1.00E-13,  avg # of iterations =  1.0

     total cpu time spent up to now is       36.2 secs

     total energy              =    -249.71485493 Ry
     estimated scf accuracy    <          4.5E-12 Ry

     iteration # 27     ecut=    60.00 Ry     beta= 0.70
     Davidson diagonalization with overlap

---- Real-time Memory Report at c_bands before calling an iterative solver
            91 MiB given to the printing process from OS
             0 MiB allocation reported by mallinfo(arena+hblkhd)
           206 MiB available memory on the node where the printing process lives
------------------
     ethr =  1.00E-13,  avg # of iterations =  1.0

     total cpu time spent up to now is       37.4 secs

     total energy              =    -249.71485493 Ry
     estimated scf accuracy    <          2.0E-12 Ry

     iteration # 28     ecut=    60.00 Ry     beta= 0.70
     Davidson diagonalization with overlap

---- Real-time Memory Report at c_bands before calling an iterative solver
            91 MiB given to the printing process from OS
             0 MiB allocation reported by mallinfo(arena+hblkhd)
           207 MiB available memory on the node where the printing process lives
------------------
     ethr =  1.00E-13,  avg # of iterations =  1.0

     total cpu time spent up to now is       38.6 secs

     total energy              =    -249.71485493 Ry
     estimated scf accuracy    <          4.5E-12 Ry

     iteration # 29     ecut=    60.00 Ry     beta= 0.70
     Davidson diagonalization with overlap

---- Real-time Memory Report at c_bands before calling an iterative solver
            91 MiB given to the printing process from OS
             0 MiB allocation reported by mallinfo(arena+hblkhd)
           206 MiB available memory on the node where the printing process lives
------------------
     ethr =  1.00E-13,  avg # of iterations =  1.0

     total cpu time spent up to now is       39.8 secs

     End of self-consistent calculation

          k = 0.0000 0.0000 0.0000 (  5017 PWs)   bands (ev):

   -87.1800 -53.5611 -53.5611 -53.5611  -2.9352  -1.6394  -1.6394  -1.6394
    -1.5850  -1.5850   4.6403   4.6403

     occupation numbers 
     1.0000   1.0000   1.0000   1.0000   1.0000   0.8248   0.8248   0.8248
     0.6438   0.6438   0.0000   0.0000

          k = 0.0000 0.2887 0.2887 (  5007 PWs)   bands (ev):

   -87.1797 -53.5615 -53.5602 -53.5593  -2.1402  -1.6773  -1.5953  -1.5765
    -1.5714  -1.5577   1.3890   3.5780

     occupation numbers 
     1.0000   1.0000   1.0000   1.0000   1.0000   0.9080   0.6831   0.6104
     0.5899   0.5338   0.0000   0.0000

          k = 0.0000-0.2887-0.2887 (  5007 PWs)   bands (ev):

   -87.1797 -53.5615 -53.5602 -53.5593  -2.1402  -1.6773  -1.5953  -1.5765
    -1.5714  -1.5577   1.3890   3.5780

     occupation numbers 
     1.0000   1.0000   1.0000   1.0000   1.0000   0.9080   0.6831   0.6104
     0.5899   0.5338   0.0000   0.0000

          k = 0.2887 0.0000 0.2887 (  5007 PWs)   bands (ev):

   -87.1797 -53.5615 -53.5602 -53.5593  -2.1402  -1.6773  -1.5953  -1.5765
    -1.5714  -1.5577   1.3890   3.5780

     occupation numbers 
     1.0000   1.0000   1.0000   1.0000   1.0000   0.9080   0.6831   0.6104
     0.5899   0.5338   0.0000   0.0000

          k = 0.2887 0.2887 0.5774 (  5006 PWs)   bands (ev):

   -87.1796 -53.5613 -53.5597 -53.5597  -1.7228  -1.6183  -1.6183  -1.5717
    -1.5717  -1.2044   1.1880   1.1880

     occupation numbers 
     1.0000   1.0000   1.0000   1.0000   0.9642   0.7627   0.7627   0.5913
     0.5913   0.0002   0.0000   0.0000

          k = 0.2887-0.2887-0.0000 (  5007 PWs)   bands (ev):

   -87.1797 -53.5615 -53.5602 -53.5593  -2.1402  -1.6773  -1.5953  -1.5765
    -1.5714  -1.5577   1.3890   3.5780

     occupation numbers 
     1.0000   1.0000   1.0000   1.0000   1.0000   0.9080   0.6831   0.6104
     0.5899   0.5338   0.0000   0.0000

          k =-0.2887 0.0000-0.2887 (  5007 PWs)   bands (ev):

   -87.1797 -53.5615 -53.5602 -53.5593  -2.1402  -1.6773  -1.5953  -1.5765
    -1.5714  -1.5577   1.3890   3.5780

     occupation numbers 
     1.0000   1.0000   1.0000   1.0000   1.0000   0.9080   0.6831   0.6104
     0.5899   0.5338   0.0000   0.0000

          k =-0.2887 0.2887-0.0000 (  5007 PWs)   bands (ev):

   -87.1797 -53.5615 -53.5602 -53.5593  -2.1402  -1.6773  -1.5953  -1.5765
    -1.5714  -1.5577   1.3890   3.5780

     occupation numbers 
     1.0000   1.0000   1.0000   1.0000   1.0000   0.9080   0.6831   0.6104
     0.5899   0.5338   0.0000   0.0000

          k =-0.2887-0.2887-0.5774 (  5006 PWs)   bands (ev):

   -87.1796 -53.5613 -53.5597 -53.5597  -1.7228  -1.6183  -1.6183  -1.5717
    -1.5717  -1.2044   1.1880   1.1880

     occupation numbers 
     1.0000   1.0000   1.0000   1.0000   0.9642   0.7627   0.7627   0.5913
     0.5913   0.0002   0.0000   0.0000

          k = 0.2887 0.2887 0.0000 (  5007 PWs)   bands (ev):

   -87.1797 -53.5615 -53.5602 -53.5593  -2.1402  -1.6773  -1.5953  -1.5765
    -1.5714  -1.5577   1.3890   3.5780

     occupation numbers 
     1.0000   1.0000   1.0000   1.0000   1.0000   0.9080   0.6831   0.6104
     0.5899   0.5338   0.0000   0.0000

          k = 0.2887 0.5774 0.2887 (  5006 PWs)   bands (ev):

   -87.1796 -53.5613 -53.5597 -53.5597  -1.7228  -1.6183  -1.6183  -1.5717
    -1.5717  -1.2044   1.1880   1.1880

     occupation numbers 
     1.0000   1.0000   1.0000   1.0000   0.9642   0.7627   0.7627   0.5913
     0.5913   0.0002   0.0000   0.0000

          k = 0.2887-0.0000-0.2887 (  5007 PWs)   bands (ev):

   -87.1797 -53.5615 -53.5602 -53.5593  -2.1402  -1.6773  -1.5953  -1.5765
    -1.5714  -1.5577   1.3890   3.5780

     occupation numbers 
     1.0000   1.0000   1.0000   1.0000   1.0000   0.9080   0.6831   0.6104
     0.5899   0.5338   0.0000   0.0000

          k = 0.5774 0.2887 0.2887 (  5006 PWs)   bands (ev):

   -87.1796 -53.5613 -53.5597 -53.5597  -1.7228  -1.6183  -1.6183  -1.5717
    -1.5717  -1.2044   1.1880   1.1880

     occupation numbers 
     1.0000   1.0000   1.0000   1.0000   0.9642   0.7627   0.7627   0.5913
     0.5913   0.0002   0.0000   0.0000

          k = 0.5774 0.5774 0.5774 (  5006 PWs)   bands (ev):

   -87.1796 -53.5613 -53.5597 -53.5597  -1.7228  -1.6183  -1.6183  -1.5717
    -1.5717  -1.2044   1.1880   1.1880

     occupation numbers 
     1.0000   1.0000   1.0000   1.0000   0.9642   0.7627   0.7627   0.5913
     0.5913   0.0002   0.0000   0.0000

          k = 0.5774-0.0000-0.0000 (  5018 PWs)   bands (ev):

   -87.1800 -53.5612 -53.5612 -53.5606  -1.6716  -1.6707  -1.5877  -1.5877
    -1.5623  -1.2972   1.7493   2.4104

     occupation numbers 
     1.0000   1.0000   1.0000   1.0000   0.8977   0.8962   0.6542   0.6542
     0.5528   0.0044   0.0000   0.0000

          k =-0.0000 0.2887-0.2887 (  5007 PWs)   bands (ev):

   -87.1797 -53.5615 -53.5602 -53.5593  -2.1402  -1.6773  -1.5953  -1.5765
    -1.5714  -1.5577   1.3890   3.5781

     occupation numbers 
     1.0000   1.0000   1.0000   1.0000   1.0000   0.9080   0.6831   0.6104
     0.5899   0.5338   0.0000   0.0000

          k =-0.0000 0.5774-0.0000 (  5018 PWs)   bands (ev):

   -87.1800 -53.5612 -53.5612 -53.5606  -1.6716  -1.6707  -1.5877  -1.5877
    -1.5623  -1.2972   1.7493   2.4104

     occupation numbers 
     1.0000   1.0000   1.0000   1.0000   0.8977   0.8962   0.6542   0.6542
     0.5528   0.0044   0.0000   0.0000

          k =-0.0000-0.0000-0.5774 (  5018 PWs)   bands (ev):

   -87.1800 -53.5612 -53.5612 -53.5606  -1.6716  -1.6707  -1.5877  -1.5877
    -1.5623  -1.2972   1.7493   2.4104

     occupation numbers 
     1.0000   1.0000   1.0000   1.0000   0.8977   0.8962   0.6542   0.6542
     0.5528   0.0044   0.0000   0.0000

          k =-0.2887-0.2887 0.0000 (  5007 PWs)   bands (ev):

   -87.1797 -53.5615 -53.5602 -53.5593  -2.1402  -1.6773  -1.5953  -1.5765
    -1.5714  -1.5577   1.3890   3.5780

     occupation numbers 
     1.0000   1.0000   1.0000   1.0000   1.0000   0.9080   0.6831   0.6104
     0.5899   0.5338   0.0000   0.0000

          k =-0.2887-0.0000 0.2887 (  5007 PWs)   bands (ev):

   -87.1797 -53.5615 -53.5602 -53.5593  -2.1402  -1.6773  -1.5953  -1.5765
    -1.5714  -1.5577   1.3890   3.5780

     occupation numbers 
     1.0000   1.0000   1.0000   1.0000   1.0000   0.9080   0.6831   0.6104
     0.5899   0.5338   0.0000   0.0000

          k =-0.2887-0.5774-0.2887 (  5006 PWs)   bands (ev):

   -87.1796 -53.5613 -53.5597 -53.5597  -1.7228  -1.6183  -1.6183  -1.5717
    -1.5717  -1.2044   1.1880   1.1880

     occupation numbers 
     1.0000   1.0000   1.0000   1.0000   0.9642   0.7627   0.7627   0.5913
     0.5913   0.0002   0.0000   0.0000

          k =-0.0000-0.2887 0.2887 (  5007 PWs)   bands (ev):

   -87.1797 -53.5615 -53.5602 -53.5593  -2.1402  -1.6773  -1.5953  -1.5765
    -1.5714  -1.5577   1.3890   3.5780

     occupation numbers 
     1.0000   1.0000   1.0000   1.0000   1.0000   0.9080   0.6831   0.6104
     0.5899   0.5338   0.0000   0.0000

          k =-0.0000-0.0000 0.5774 (  5018 PWs)   bands (ev):

   -87.1800 -53.5612 -53.5612 -53.5606  -1.6716  -1.6707  -1.5877  -1.5877
    -1.5623  -1.2972   1.7493   2.4104

     occupation numbers 
     1.0000   1.0000   1.0000   1.0000   0.8977   0.8962   0.6542   0.6542
     0.5528   0.0044   0.0000   0.0000

          k =-0.0000-0.5774-0.0000 (  5018 PWs)   bands (ev):

   -87.1800 -53.5612 -53.5612 -53.5606  -1.6716  -1.6707  -1.5877  -1.5877
    -1.5623  -1.2972   1.7493   2.4104

     occupation numbers 
     1.0000   1.0000   1.0000   1.0000   0.8977   0.8962   0.6542   0.6542
     0.5528   0.0044   0.0000   0.0000

          k =-0.5774-0.2887-0.2887 (  5006 PWs)   bands (ev):

   -87.1796 -53.5613 -53.5597 -53.5597  -1.7228  -1.6183  -1.6183  -1.5717
    -1.5717  -1.2044   1.1880   1.1880

     occupation numbers 
     1.0000   1.0000   1.0000   1.0000   0.9642   0.7627   0.7627   0.5913
     0.5913   0.0002   0.0000   0.0000

          k =-0.5774-0.0000-0.0000 (  5018 PWs)   bands (ev):

   -87.1800 -53.5612 -53.5612 -53.5606  -1.6716  -1.6707  -1.5877  -1.5877
    -1.5623  -1.2972   1.7493   2.4104

     occupation numbers 
     1.0000   1.0000   1.0000   1.0000   0.8977   0.8962   0.6542   0.6542
     0.5528   0.0044   0.0000   0.0000

          k =-0.5774-0.5774-0.5774 (  5006 PWs)   bands (ev):

   -87.1796 -53.5613 -53.5597 -53.5597  -1.7228  -1.6183  -1.6183  -1.5717
    -1.5717  -1.2044   1.1880   1.1880

     occupation numbers 
     1.0000   1.0000   1.0000   1.0000   0.9642   0.7627   0.7627   0.5913
     0.5913   0.0002   0.0000   0.0000

     the Fermi energy is    -1.5495 ev

!    total energy              =    -249.71485493 Ry
     estimated scf accuracy    <          1.4E-13 Ry
     smearing contrib. (-TS)   =      -0.02233027 Ry
     internal energy E=F+TS    =    -249.69252465 Ry

     The total energy is F=E-TS. E is the sum of the following terms:
     one-electron contribution =    -255.74651856 Ry
     hartree contribution      =     126.56893824 Ry
     xc contribution           =     -34.62572816 Ry
     ewald contribution        =     -85.88921617 Ry

     convergence has been achieved in  29 iterations

     Forces acting on atoms (cartesian axes, Ry/au):

     atom    1 type  1   force =     0.00000000    0.00000000    0.00000000
     The non-local contrib.  to forces
     atom    1 type  1   force =     0.00000000   -0.00000000    0.00000000
     The ionic contribution  to forces
     atom    1 type  1   force =    -0.00000000   -0.00000000   -0.00000000
     The local contribution  to forces
     atom    1 type  1   force =     0.00000000   -0.00000000    0.00000000
     The core correction contribution to forces
     atom    1 type  1   force =    -0.00000000   -0.00000000   -0.00000000
     The Hubbard contrib.    to forces
     atom    1 type  1   force =     0.00000000    0.00000000    0.00000000
     The SCF correction term to forces
     atom    1 type  1   force =    -0.00000000    0.00000000   -0.00000000

     Total force =     0.000000     Total SCF correction =     0.000000


     Computing stress (Cartesian axis) and pressure

          total   stress  (Ry/bohr**3)                   (kbar)     P=     -274.13
  -0.00186353  -0.00000000   0.00000000         -274.13       -0.00        0.00
  -0.00000000  -0.00186353  -0.00000000           -0.00     -274.13       -0.00
   0.00000000  -0.00000000  -0.00186353            0.00       -0.00     -274.13

     kinetic stress (kbar)  17754.86      0.00     -0.00
                                0.00  17754.86      0.00
                               -0.00      0.00  17754.86

     local   stress (kbar) -16075.53     -0.00      0.00
                               -0.00 -16075.54     -0.00
                                0.00     -0.00 -16075.53

     nonloc. stress (kbar)  -2786.54     -0.00      0.00
                               -0.00  -2786.54     -0.00
                                0.00     -0.00  -2786.54

     hartree stress (kbar)   9725.90      0.00     -0.00
                                0.00   9725.90      0.00
                               -0.00      0.00   9725.90

     exc-cor stress (kbar)    -44.49      0.00      0.00
                                0.00    -44.49      0.00
                                0.00      0.00    -44.49

     corecor stress (kbar)  -2248.37     -0.00      0.00
                               -0.00  -2248.37     -0.00
                                0.00     -0.00  -2248.37

     ewald   stress (kbar)  -6599.96     -0.00     -0.00
                               -0.00  -6599.96     -0.00
                               -0.00     -0.00  -6599.96

     hubbard stress (kbar)      0.00      0.00      0.00
                                0.00      0.00      0.00
                                0.00      0.00      0.00

     DFT-D   stress (kbar)      0.00      0.00      0.00
                                0.00      0.00      0.00
                                0.00      0.00      0.00

     XDM     stress (kbar)      0.00      0.00      0.00
                                0.00      0.00      0.00
                                0.00      0.00      0.00

     dft-nl  stress (kbar)      0.00      0.00      0.00
                                0.00      0.00      0.00
                                0.00      0.00      0.00

     TS-vdW  stress (kbar)      0.00      0.00      0.00
                                0.00      0.00      0.00
                                0.00      0.00      0.00

     MDB     stress (kbar)      0.00      0.00      0.00
                                0.00      0.00      0.00
                                0.00      0.00      0.00

     3D-RISM stress (kbar)      0.00      0.00      0.00
                                0.00      0.00      0.00
                                0.00      0.00      0.00


     Writing all to output data dir ./out/aiida.save/ :
     XML data file, charge density, pseudopotentials, collected wavefunctions

     init_run     :      0.97s CPU      0.98s WALL (       1 calls)
     electrons    :     38.73s CPU     38.84s WALL (       1 calls)
     forces       :      0.13s CPU      0.13s WALL (       1 calls)
     stress       :      0.74s CPU      0.74s WALL (       1 calls)

     Called by init_run:
     wfcinit      :      0.64s CPU      0.65s WALL (       1 calls)
     wfcinit:atom :      0.02s CPU      0.02s WALL (      27 calls)
     wfcinit:wfcr :      0.59s CPU      0.60s WALL (      27 calls)
     potinit      :      0.02s CPU      0.02s WALL (       1 calls)
     hinit0       :      0.28s CPU      0.28s WALL (       1 calls)

     Called by electrons:
     c_bands      :     32.63s CPU     32.72s WALL (      29 calls)
     sum_band     :      5.80s CPU      5.81s WALL (      29 calls)
     v_of_rho     :      0.14s CPU      0.15s WALL (      30 calls)
     v_h          :      0.03s CPU      0.03s WALL (      30 calls)
     v_xc         :      0.13s CPU      0.13s WALL (      32 calls)
     mix_rho      :      0.15s CPU      0.15s WALL (      29 calls)

     Called by c_bands:
     init_us_2    :      1.18s CPU      1.19s WALL (    1647 calls)
     cegterg      :     30.75s CPU     30.83s WALL (     783 calls)

     Called by sum_band:
     sum_band:wei :      0.00s CPU      0.00s WALL (      29 calls)
     sum_band:loo :      5.74s CPU      5.75s WALL (      29 calls)
     sum_band:buf :      0.06s CPU      0.06s WALL (     783 calls)
     sum_band:ini :      0.57s CPU      0.57s WALL (     783 calls)

     Called by *egterg:
     cdiaghg      :      0.20s CPU      0.20s WALL (    2169 calls)
     cegterg:over :      1.96s CPU      1.97s WALL (    1386 calls)
     cegterg:upda :      0.97s CPU      0.98s WALL (    1386 calls)
     cegterg:last :      1.22s CPU      1.22s WALL (    1054 calls)
     h_psi        :     25.75s CPU     25.83s WALL (    2196 calls)
     g_psi        :      0.16s CPU      0.16s WALL (    1386 calls)

     Called by h_psi:
     h_psi:calbec :      1.49s CPU      1.50s WALL (    2196 calls)
     vloc_psi     :     22.90s CPU     22.97s WALL (    2196 calls)
     add_vuspsi   :      1.23s CPU      1.23s WALL (    2196 calls)

     General routines
     calbec       :      1.59s CPU      1.60s WALL (    2331 calls)
     fft          :      0.26s CPU      0.26s WALL (      97 calls)
     ffts         :      0.02s CPU      0.02s WALL (      29 calls)
     fftw         :     24.86s CPU     24.93s WALL (   51058 calls)

     Parallel routines

     PWSCF        :     40.61s CPU     40.74s WALL


   This run was terminated on:  10: 2: 0   1Jul2024            

=------------------------------------------------------------------------------=
   JOB DONE.
=------------------------------------------------------------------------------=
